3
* (null), Energy   -1000.0000000
O     0.000000    0.045838   -0.000000    0.000000   -0.101351    0.000000
H     0.000000   -0.552069   -0.754394    0.000000    0.804322    1.161004
H     0.000000   -0.552069    0.754394    0.000000    0.804322   -1.161004
3
* Frequency(7) 3867.5876
O     0.000000    0.034320    0.000000    0.000000   -0.101351    0.000000
H     0.000000   -0.460662   -0.622452    0.000000    0.804322    1.161004
H     0.000000   -0.460662    0.622452    0.000000    0.804322   -1.161004
3
* Frequency(7) 3867.5876
O     0.000000    0.024050    0.000000    0.000000   -0.101351    0.000000
H     0.000000   -0.379160   -0.504808    0.000000    0.804322    1.161004
H     0.000000   -0.379160    0.504808    0.000000    0.804322   -1.161004
3
* Frequency(7) 3867.5876
O     0.000000    0.016141    0.000000    0.000000   -0.101351    0.000000
H     0.000000   -0.316396   -0.414210    0.000000    0.804322    1.161004
H     0.000000   -0.316396    0.414210    0.000000    0.804322   -1.161004
3
* Frequency(7) 3867.5876
O     0.000000    0.011451    0.000000    0.000000   -0.101351    0.000000
H     0.000000   -0.279170   -0.360477    0.000000    0.804322    1.161004
H     0.000000   -0.279170    0.360477    0.000000    0.804322   -1.161004
3
* Frequency(7) 3867.5876
O     0.000000    0.010486    0.000000    0.000000   -0.101351    0.000000
H     0.000000   -0.271518   -0.349430    0.000000    0.804322    1.161004
H     0.000000   -0.271518    0.349430    0.000000    0.804322   -1.161004
3
* Frequency(7) 3867.5876
O     0.000000    0.013353    0.000000    0.000000   -0.101351    0.000000
H     0.000000   -0.294267   -0.382268    0.000000    0.804322    1.161004
H     0.000000   -0.294267    0.382268    0.000000    0.804322   -1.161004
3
* Frequency(7) 3867.5876
O     0.000000    0.019740    0.000000    0.000000   -0.101351    0.000000
H     0.000000   -0.344953   -0.455431    0.000000    0.804322    1.161004
H     0.000000   -0.344953    0.455431    0.000000    0.804322   -1.161004
3
* Frequency(7) 3867.5876
O     0.000000    0.028955    0.000000    0.000000   -0.101351    0.000000
H     0.000000   -0.418084   -0.560992    0.000000    0.804322    1.161004
H     0.000000   -0.418084    0.560992    0.000000    0.804322   -1.161004
3
* Frequency(7) 3867.5876
O     0.000000    0.039999    0.000000    0.000000   -0.101351    0.000000
H     0.000000   -0.505734   -0.687510    0.000000    0.804322    1.161004
H     0.000000   -0.505734    0.687510    0.000000    0.804322   -1.161004
3
* Frequency(7) 3867.5876
O     0.000000    0.051677   -0.000000    0.000000   -0.101351    0.000000
H     0.000000   -0.598405   -0.821277    0.000000    0.804322    1.161004
H     0.000000   -0.598405    0.821277    0.000000    0.804322   -1.161004
3
* Frequency(7) 3867.5876
O     0.000000    0.062721   -0.000000    0.000000   -0.101351    0.000000
H     0.000000   -0.686054   -0.947796    0.000000    0.804322    1.161004
H     0.000000   -0.686054    0.947796    0.000000    0.804322   -1.161004
3
* Frequency(7) 3867.5876
O     0.000000    0.071936   -0.000000    0.000000   -0.101351    0.000000
H     0.000000   -0.759185   -1.053356    0.000000    0.804322    1.161004
H     0.000000   -0.759185    1.053356    0.000000    0.804322   -1.161004
3
* Frequency(7) 3867.5876
O     0.000000    0.078323   -0.000000    0.000000   -0.101351    0.000000
H     0.000000   -0.809871   -1.126519    0.000000    0.804322    1.161004
H     0.000000   -0.809871    1.126519    0.000000    0.804322   -1.161004
3
* Frequency(7) 3867.5876
O     0.000000    0.081190   -0.000000    0.000000   -0.101351    0.000000
H     0.000000   -0.832620   -1.159357    0.000000    0.804322    1.161004
H     0.000000   -0.832620    1.159357    0.000000    0.804322   -1.161004
3
* Frequency(7) 3867.5876
O     0.000000    0.080225   -0.000000    0.000000   -0.101351    0.000000
H     0.000000   -0.824968   -1.148311    0.000000    0.804322    1.161004
H     0.000000   -0.824968    1.148311    0.000000    0.804322   -1.161004
3
* Frequency(7) 3867.5876
O     0.000000    0.075535   -0.000000    0.000000   -0.101351    0.000000
H     0.000000   -0.787742   -1.094577    0.000000    0.804322    1.161004
H     0.000000   -0.787742    1.094577    0.000000    0.804322   -1.161004
3
* Frequency(7) 3867.5876
O     0.000000    0.067626   -0.000000    0.000000   -0.101351    0.000000
H     0.000000   -0.724978   -1.003980    0.000000    0.804322    1.161004
H     0.000000   -0.724978    1.003980    0.000000    0.804322   -1.161004
3
* Frequency(7) 3867.5876
O     0.000000    0.057356   -0.000000    0.000000   -0.101351    0.000000
H     0.000000   -0.643476   -0.886336    0.000000    0.804322    1.161004
H     0.000000   -0.643476    0.886336    0.000000    0.804322   -1.161004
3
* Frequency(7) 3867.5876
O     0.000000    0.045838   -0.000000    0.000000   -0.101351    0.000000
H     0.000000   -0.552069   -0.754394    0.000000    0.804322    1.161004
H     0.000000   -0.552069    0.754394    0.000000    0.804322   -1.161004
