3
* (null), Energy   -1000.0000000
O     0.000000    0.045838   -0.000000    0.000000    0.140162   -0.000000
H     0.000000   -0.552069   -0.754394    0.000000   -1.112327    0.867702
H     0.000000   -0.552069    0.754394    0.000000   -1.112327   -0.867702
3
* Frequency(6) 1643.3862
O     0.000000    0.061767   -0.000000    0.000000    0.140162   -0.000000
H     0.000000   -0.678479   -0.655784    0.000000   -1.112327    0.867702
H     0.000000   -0.678479    0.655784    0.000000   -1.112327   -0.867702
3
* Frequency(6) 1643.3862
O     0.000000    0.075969   -0.000000    0.000000    0.140162   -0.000000
H     0.000000   -0.791191   -0.567860    0.000000   -1.112327    0.867702
H     0.000000   -0.791191    0.567860    0.000000   -1.112327   -0.867702
3
* Frequency(6) 1643.3862
O     0.000000    0.086907   -0.000000    0.000000    0.140162   -0.000000
H     0.000000   -0.877990   -0.500150    0.000000   -1.112327    0.867702
H     0.000000   -0.877990    0.500150    0.000000   -1.112327   -0.867702
3
* Frequency(6) 1643.3862
O     0.000000    0.093394   -0.000000    0.000000    0.140162   -0.000000
H     0.000000   -0.929471   -0.459991    0.000000   -1.112327    0.867702
H     0.000000   -0.929471    0.459991    0.000000   -1.112327   -0.867702
3
* Frequency(6) 1643.3862
O     0.000000    0.094727   -0.000000    0.000000    0.140162   -0.000000
H     0.000000   -0.940054   -0.451735    0.000000   -1.112327    0.867702
H     0.000000   -0.940054    0.451735    0.000000   -1.112327   -0.867702
3
* Frequency(6) 1643.3862
O     0.000000    0.090763   -0.000000    0.000000    0.140162   -0.000000
H     0.000000   -0.908593   -0.476277    0.000000   -1.112327    0.867702
H     0.000000   -0.908593    0.476277    0.000000   -1.112327   -0.867702
3
* Frequency(6) 1643.3862
O     0.000000    0.081930   -0.000000    0.000000    0.140162   -0.000000
H     0.000000   -0.838497   -0.530958    0.000000   -1.112327    0.867702
H     0.000000   -0.838497    0.530958    0.000000   -1.112327   -0.867702
3
* Frequency(6) 1643.3862
O     0.000000    0.069186   -0.000000    0.000000    0.140162   -0.000000
H     0.000000   -0.737362   -0.609851    0.000000   -1.112327    0.867702
H     0.000000   -0.737362    0.609851    0.000000   -1.112327   -0.867702
3
* Frequency(6) 1643.3862
O     0.000000    0.053913   -0.000000    0.000000    0.140162   -0.000000
H     0.000000   -0.616148   -0.704407    0.000000   -1.112327    0.867702
H     0.000000   -0.616148    0.704407    0.000000   -1.112327   -0.867702
3
* Frequency(6) 1643.3862
O     0.000000    0.037764   -0.000000    0.000000    0.140162   -0.000000
H     0.000000   -0.487990   -0.804380    0.000000   -1.112327    0.867702
H     0.000000   -0.487990    0.804380    0.000000   -1.112327   -0.867702
3
* Frequency(6) 1643.3862
O     0.000000    0.022490   -0.000000    0.000000    0.140162   -0.000000
H     0.000000   -0.366776   -0.898937    0.000000   -1.112327    0.867702
H     0.000000   -0.366776    0.898937    0.000000   -1.112327   -0.867702
3
* Frequency(6) 1643.3862
O     0.000000    0.009746   -0.000000    0.000000    0.140162   -0.000000
H     0.000000   -0.265641   -0.977830    0.000000   -1.112327    0.867702
H     0.000000   -0.265641    0.977830    0.000000   -1.112327   -0.867702
3
* Frequency(6) 1643.3862
O     0.000000    0.000913   -0.000000    0.000000    0.140162   -0.000000
H     0.000000   -0.195545   -1.032510    0.000000   -1.112327    0.867702
H     0.000000   -0.195545    1.032510    0.000000   -1.112327   -0.867702
3
* Frequency(6) 1643.3862
O     0.000000   -0.003051   -0.000000    0.000000    0.140162   -0.000000
H     0.000000   -0.164084   -1.057052    0.000000   -1.112327    0.867702
H     0.000000   -0.164084    1.057052    0.000000   -1.112327   -0.867702
3
* Frequency(6) 1643.3862
O     0.000000   -0.001717   -0.000000    0.000000    0.140162   -0.000000
H     0.000000   -0.174668   -1.048796    0.000000   -1.112327    0.867702
H     0.000000   -0.174668    1.048796    0.000000   -1.112327   -0.867702
3
* Frequency(6) 1643.3862
O     0.000000    0.004769   -0.000000    0.000000    0.140162   -0.000000
H     0.000000   -0.226148   -1.008637    0.000000   -1.112327    0.867702
H     0.000000   -0.226148    1.008637    0.000000   -1.112327   -0.867702
3
* Frequency(6) 1643.3862
O     0.000000    0.015707   -0.000000    0.000000    0.140162   -0.000000
H     0.000000   -0.312947   -0.940927    0.000000   -1.112327    0.867702
H     0.000000   -0.312947    0.940927    0.000000   -1.112327   -0.867702
3
* Frequency(6) 1643.3862
O     0.000000    0.029909   -0.000000    0.000000    0.140162   -0.000000
H     0.000000   -0.425659   -0.853003    0.000000   -1.112327    0.867702
H     0.000000   -0.425659    0.853003    0.000000   -1.112327   -0.867702
3
* Frequency(6) 1643.3862
O     0.000000    0.045838   -0.000000    0.000000    0.140162   -0.000000
H     0.000000   -0.552069   -0.754394    0.000000   -1.112327    0.867702
H     0.000000   -0.552069    0.754394    0.000000   -1.112327   -0.867702
