
                                 *****************
                                 * O   R   C   A *
                                 *****************

           --- An Ab Initio, DFT and Semiempirical electronic structure package ---

                  #######################################################
                  #                        -***-                        #
                  #          Department of theory and spectroscopy      #
                  #               Directorship: Frank Neese             #
                  #        Max Planck Institute fuer Kohlenforschung    #
                  #                Kaiser Wilhelm Platz 1               #
                  #                 D-45470 Muelheim/Ruhr               #
                  #                      Germany                        #
                  #                                                     #
                  #                  All rights reserved                #
                  #                        -***-                        #
                  #######################################################


                         Program Version 4.2.1 -  RELEASE  -


 With contributions from (in alphabetic order):
   Daniel Aravena         : Magnetic Suceptibility
   Michael Atanasov       : Ab Initio Ligand Field Theory (pilot matlab implementation)
   Alexander A. Auer      : GIAO ZORA, VPT2
   Ute Becker             : Parallelization
   Giovanni Bistoni       : ED, misc. LED, open-shell LED, HFLD
   Martin Brehm           : Molecular dynamics
   Dmytro Bykov           : SCF Hessian
   Vijay G. Chilkuri      : MRCI spin determinant printing, contributions to CSF-ICE
   Dipayan Datta          : RHF DLPNO-CCSD density
   Achintya Kumar Dutta   : EOM-CC, STEOM-CC
   Dmitry Ganyushin       : Spin-Orbit,Spin-Spin,Magnetic field MRCI
   Miquel Garcia          : C-PCM Hessian, Gaussian charge scheme
   Yang Guo               : DLPNO-NEVPT2, CIM, IAO-localization
   Andreas Hansen         : Spin unrestricted coupled pair/coupled cluster methods
   Benjamin Helmich-Paris : CASSCF linear response (MC-RPA)
   Lee Huntington         : MR-EOM, pCC
   Robert Izsak           : Overlap fitted RIJCOSX, COSX-SCS-MP3, EOM
   Christian Kollmar      : KDIIS, OOCD, Brueckner-CCSD(T), CCSD density
   Simone Kossmann        : Meta GGA functionals, TD-DFT gradient, OOMP2, MP2 Hessian
   Martin Krupicka        : AUTO-CI
   Lucas Lang             : DCDCAS
   Dagmar Lenk            : GEPOL surface, SMD
   Dimitrios Liakos       : Extrapolation schemes; Compound Job, initial MDCI parallelization
   Dimitrios Manganas     : Further ROCIS development; embedding schemes
   Dimitrios Pantazis     : SARC Basis sets
   Taras Petrenko         : DFT Hessian,TD-DFT gradient, ASA, ECA, R-Raman, ABS, FL, XAS/XES, NRVS
   Peter Pinski           : DLPNO-MP2, DLPNO-MP2 Gradient
   Christoph Reimann      : Effective Core Potentials
   Marius Retegan         : Local ZFS, SOC
   Christoph Riplinger    : Optimizer, TS searches, QM/MM, DLPNO-CCSD(T), (RO)-DLPNO pert. Triples
   Tobias Risthaus        : Range-separated hybrids, TD-DFT gradient, RPA, STAB
   Michael Roemelt        : Original ROCIS implementation
   Masaaki Saitow         : Open-shell DLPNO-CCSD energy and density
   Barbara Sandhoefer     : DKH picture change effects
   Avijit Sen             : IP-ROCIS
   Kantharuban Sivalingam : CASSCF convergence, NEVPT2, FIC-MRCI
   Bernardo de Souza      : ESD, SOC TD-DFT
   Georgi Stoychev        : AutoAux, RI-MP2 NMR
   Willem Van den Heuvel  : Paramagnetic NMR
   Boris Wezisla          : Elementary symmetry handling
   Frank Wennmohs         : Technical directorship


 We gratefully acknowledge several colleagues who have allowed us to
 interface, adapt or use parts of their codes:
   Stefan Grimme, W. Hujo, H. Kruse,             : VdW corrections, initial TS optimization,
                  C. Bannwarth                     DFT functionals, gCP, sTDA/sTD-DF
   Ed Valeev, F. Pavosevic, A. Kumar             : LibInt (2-el integral package), F12 methods
   Garnet Chan, S. Sharma, J. Yang, R. Olivares  : DMRG
   Ulf Ekstrom                                   : XCFun DFT Library
   Mihaly Kallay                                 : mrcc  (arbitrary order and MRCC methods)
   Andreas Klamt, Michael Diedenhofen            : otool_cosmo (COSMO solvation model)
   Jiri Pittner, Ondrej Demel                    : Mk-CCSD
   Frank Weinhold                                : gennbo (NPA and NBO analysis)
   Christopher J. Cramer and Donald G. Truhlar   : smd solvation model
   Lars Goerigk                                  : TD-DFT with DH, B97 family of functionals
   V. Asgeirsson, H. Jonsson                     : NEB implementation
   FAccTs GmbH                                   : IRC, NEB, NEB-TS, Multilevel, MM, QM/MM, CI optimization
   S Lehtola, MJT Oliveira, MAL Marques          : LibXC Library


 Your calculation uses the libint2 library for the computation of 2-el integrals
 For citations please refer to: http://libint.valeyev.net

 Your ORCA version has been built with support for libXC version: 4.2.3
 For citations please refer to: https://tddft.org/programs/libxc/

 This ORCA versions uses:
   CBLAS   interface :  Fast vector & matrix operations
   LAPACKE interface :  Fast linear algebra routines




***************************************
The coordinates will be read from file: butane.xyz
***************************************


----- Orbital basis set information -----
Your calculation utilizes the basis: def2-SVP
   F. Weigend and R. Ahlrichs, Phys. Chem. Chem. Phys. 7, 3297 (2005).

================================================================================
                                        WARNINGS
                       Please study these warnings very carefully!
================================================================================


WARNING: Geometry Optimization
  ===> : Switching off AutoStart
         For restart on a previous wavefunction, please use MOREAD

INFO   : the flag for use of LIBINT has been found!

================================================================================
                                       INPUT FILE
================================================================================
NAME = butane.inp
|  1> ! PBE0
|  2> ! opt anfreq
|  3> * xyzfile 0 1 butane.xyz **                         ****END OF INPUT****
================================================================================

                       *****************************
                       * Geometry Optimization Run *
                       *****************************

Geometry optimization settings:
Update method            Update   .... BFGS
Choice of coordinates    CoordSys .... Z-matrix Internals
Initial Hessian          InHess   .... Almoef's Model

Convergence Tolerances:
Energy Change            TolE     ....  5.0000e-06 Eh
Max. Gradient            TolMAXG  ....  3.0000e-04 Eh/bohr
RMS Gradient             TolRMSG  ....  1.0000e-04 Eh/bohr
Max. Displacement        TolMAXD  ....  4.0000e-03 bohr
RMS Displacement         TolRMSD  ....  2.0000e-03 bohr
Strict Convergence                ....  False
------------------------------------------------------------------------------
                        ORCA OPTIMIZATION COORDINATE SETUP
------------------------------------------------------------------------------

The optimization will be done in new redundant internal coordinates
Making redundant internal coordinates   ...  (new redundants) done
Evaluating the initial hessian          ...  (Almloef) done
Evaluating the coordinates              ...  done
Calculating the B-matrix                .... done
Calculating the G-matrix                .... done
Diagonalizing the G-matrix              .... done
The first mode is                       ....   28
The number of degrees of freedom        ....   36

    -----------------------------------------------------------------
                    Redundant Internal Coordinates


    -----------------------------------------------------------------
         Definition                    Initial Value    Approx d2E/dq
    -----------------------------------------------------------------
      1. B(C   1,C   0)                  1.5259         0.379282   
      2. B(C   2,C   1)                  1.5327         0.369916   
      3. B(C   3,C   2)                  1.5259         0.379282   
      4. B(H   4,C   0)                  1.1104         0.334094   
      5. B(H   5,C   0)                  1.1109         0.333481   
      6. B(H   6,C   0)                  1.1109         0.333466   
      7. B(H   7,C   1)                  1.1120         0.332188   
      8. B(H   8,C   1)                  1.1120         0.332199   
      9. B(H   9,C   2)                  1.1120         0.332196   
     10. B(H  10,C   2)                  1.1120         0.332201   
     11. B(H  11,C   3)                  1.1109         0.333469   
     12. B(H  12,C   3)                  1.1104         0.334106   
     13. B(H  13,C   3)                  1.1109         0.333472   
     14. A(H   4,C   0,H   6)          108.6709         0.284022   
     15. A(H   4,C   0,H   5)          108.6712         0.284024   
     16. A(H   5,C   0,H   6)          109.1891         0.283941   
     17. A(C   1,C   0,H   4)          109.5905         0.321155   
     18. A(C   1,C   0,H   5)          110.3398         0.321059   
     19. A(C   1,C   0,H   6)          110.3396         0.321056   
     20. A(H   7,C   1,H   8)          108.7214         0.283602   
     21. A(C   2,C   1,H   8)          109.6430         0.319548   
     22. A(C   0,C   1,H   8)          108.8248         0.320857   
     23. A(C   2,C   1,H   7)          109.6426         0.319546   
     24. A(C   0,C   1,C   2)          111.1405         0.363682   
     25. A(C   0,C   1,H   7)          108.8242         0.320855   
     26. A(C   3,C   2,H   9)          108.8248         0.320856   
     27. A(C   1,C   2,H   9)          109.6423         0.319548   
     28. A(H   9,C   2,H  10)          108.7216         0.283604   
     29. A(C   3,C   2,H  10)          108.8244         0.320857   
     30. A(C   1,C   2,H  10)          109.6429         0.319548   
     31. A(C   1,C   2,C   3)          111.1405         0.363682   
     32. A(H  12,C   3,H  13)          108.6711         0.284025   
     33. A(H  11,C   3,H  13)          109.1887         0.283940   
     34. A(C   2,C   3,H  13)          110.3399         0.321057   
     35. A(H  11,C   3,H  12)          108.6713         0.284024   
     36. A(C   2,C   3,H  12)          109.5903         0.321157   
     37. A(C   2,C   3,H  11)          110.3398         0.321057   
     38. D(H   7,C   1,C   0,H   6)    178.7887         0.011467   
     39. D(H   8,C   1,C   0,H   5)   -178.7885         0.011467   
     40. D(C   2,C   1,C   0,H   5)     60.3739         0.011467   
     41. D(H   8,C   1,C   0,H   4)    -59.1625         0.011467   
     42. D(C   2,C   1,C   0,H   4)    179.9999         0.011467   
     43. D(H   7,C   1,C   0,H   5)    -60.4627         0.011467   
     44. D(H   8,C   1,C   0,H   6)     60.4629         0.011467   
     45. D(H   7,C   1,C   0,H   4)     59.1633         0.011467   
     46. D(C   2,C   1,C   0,H   6)    -60.3747         0.011467   
     47. D(H   9,C   2,C   1,H   7)    179.9994         0.010939   
     48. D(C   3,C   2,C   1,H   8)     59.6453         0.010939   
     49. D(C   3,C   2,C   1,H   7)    -59.6462         0.010939   
     50. D(C   3,C   2,C   1,C   0)    180.0000         0.010939   
     51. D(H   9,C   2,C   1,H   8)    -60.7091         0.010939   
     52. D(H  10,C   2,C   1,H   8)    179.9995         0.010939   
     53. D(H  10,C   2,C   1,H   7)     60.7080         0.010939   
     54. D(H  10,C   2,C   1,C   0)    -59.6458         0.010939   
     55. D(H   9,C   2,C   1,C   0)     59.6456         0.010939   
     56. D(H  13,C   3,C   2,H   9)   -178.7890         0.011467   
     57. D(H  13,C   3,C   2,C   1)     60.3743         0.011467   
     58. D(H  12,C   3,C   2,H  10)     59.1629         0.011467   
     59. D(H  12,C   3,C   2,H   9)    -59.1632         0.011467   
     60. D(H  12,C   3,C   2,C   1)   -180.0000         0.011467   
     61. D(H  11,C   3,C   2,H  10)    178.7888         0.011467   
     62. D(H  11,C   3,C   2,H   9)     60.4627         0.011467   
     63. D(H  13,C   3,C   2,H  10)    -60.4629         0.011467   
     64. D(H  11,C   3,C   2,C   1)    -60.3740         0.011467   
    -----------------------------------------------------------------

Number of atoms                         .... 14
Number of degrees of freedom            .... 64

         *************************************************************
         *                GEOMETRY OPTIMIZATION CYCLE   1            *
         *************************************************************
---------------------------------
CARTESIAN COORDINATES (ANGSTROEM)
---------------------------------
  C     -2.263430    0.963970   -0.374170
  C     -1.286950   -0.108200    0.100410
  C      0.163980    0.310920   -0.160830
  C      1.140460   -0.761250    0.313750
  H     -3.304610    0.634630   -0.172980
  H     -2.149030    1.134440   -1.465940
  H     -2.081630    1.917900    0.165370
  H     -1.505050   -1.056030   -0.438580
  H     -1.437780   -0.274120    1.189520
  H      0.382070    1.258750    0.378150
  H      0.314810    0.476830   -1.249940
  H      1.026060   -0.931720    1.405530
  H      2.181630   -0.431910    0.112560
  H      0.958660   -1.715180   -0.225780

----------------------------
CARTESIAN COORDINATES (A.U.)
----------------------------
  NO LB      ZA    FRAG     MASS         X           Y           Z
   0 C     6.0000    0    12.011   -4.277263    1.821639   -0.707079
   1 C     6.0000    0    12.011   -2.431983   -0.204468    0.189747
   2 C     6.0000    0    12.011    0.309877    0.587554   -0.303925
   3 C     6.0000    0    12.011    2.155157   -1.438554    0.592902
   4 H     1.0000    0     1.008   -6.244808    1.199277   -0.326885
   5 H     1.0000    0     1.008   -4.061078    2.143781   -2.770225
   6 H     1.0000    0     1.008   -3.933711    3.624306    0.312504
   7 H     1.0000    0     1.008   -2.844132   -1.995607   -0.828796
   8 H     1.0000    0     1.008   -2.717010   -0.518012    2.247867
   9 H     1.0000    0     1.008    0.722008    2.378693    0.714600
  10 H     1.0000    0     1.008    0.594905    0.901078   -2.362044
  11 H     1.0000    0     1.008    1.938972   -1.760696    2.656067
  12 H     1.0000    0     1.008    4.122683   -0.816192    0.212708
  13 H     1.0000    0     1.008    1.811605   -3.241220   -0.426662

--------------------------------
INTERNAL COORDINATES (ANGSTROEM)
--------------------------------
 C      0   0   0     0.000000000000     0.00000000     0.00000000
 C      1   0   0     1.525872824222     0.00000000     0.00000000
 C      2   1   0     1.532679280508   111.14049574     0.00000000
 C      3   2   1     1.525872824222   111.14049574   180.00000000
 H      1   2   3     1.110404450685   109.59047226   179.99993669
 H      1   2   3     1.110904637581   110.33984187    60.37393689
 H      1   2   3     1.110917232065   110.33961753   299.62534446
 H      2   1   3     1.111962022283   108.82420340   239.16331962
 H      2   1   3     1.111953113850   108.82475457   120.83753988
 H      3   2   1     1.111955213756   109.64227330    59.64560756
 H      3   2   1     1.111951621744   109.64285229   300.35422046
 H      4   3   2     1.110914465339   110.33982505   299.62596306
 H      4   3   2     1.110395074107   109.59029396   180.00004291
 H      4   3   2     1.110912375392   110.33988146    60.37426572

---------------------------
INTERNAL COORDINATES (A.U.)
---------------------------
 C      0   0   0     0.000000000000     0.00000000     0.00000000
 C      1   0   0     2.883481752973     0.00000000     0.00000000
 C      2   1   0     2.896344091297   111.14049574     0.00000000
 C      3   2   1     2.883481752973   111.14049574   180.00000000
 H      1   2   3     2.098360309681   109.59047226   179.99993669
 H      1   2   3     2.099305525932   110.33984187    60.37393689
 H      1   2   3     2.099329326058   110.33961753   299.62534446
 H      2   1   3     2.101303693436   108.82420340   239.16331962
 H      2   1   3     2.101286858937   108.82475457   120.83753988
 H      3   2   1     2.101290827185   109.64227330    59.64560756
 H      3   2   1     2.101284039267   109.64285229   300.35422046
 H      4   3   2     2.099324097703   110.33982505   299.62596306
 H      4   3   2     2.098342590516   109.59029396   180.00004291
 H      4   3   2     2.099320148276   110.33988146    60.37426572

---------------------
BASIS SET INFORMATION
---------------------
There are 2 groups of distinct atoms

 Group   1 Type C   : 7s4p1d contracted to 3s2p1d pattern {511/31/1}
 Group   2 Type H   : 4s1p contracted to 2s1p pattern {31/1}

Atom   0C    basis set group =>   1
Atom   1C    basis set group =>   1
Atom   2C    basis set group =>   1
Atom   3C    basis set group =>   1
Atom   4H    basis set group =>   2
Atom   5H    basis set group =>   2
Atom   6H    basis set group =>   2
Atom   7H    basis set group =>   2
Atom   8H    basis set group =>   2
Atom   9H    basis set group =>   2
Atom  10H    basis set group =>   2
Atom  11H    basis set group =>   2
Atom  12H    basis set group =>   2
Atom  13H    basis set group =>   2
------------------------------------------------------------------------------
                           ORCA GTO INTEGRAL CALCULATION
------------------------------------------------------------------------------

                         BASIS SET STATISTICS AND STARTUP INFO

 # of primitive gaussian shells          ...   98
 # of primitive gaussian functions       ...  166
 # of contracted shells                  ...   54
 # of contracted basis functions         ...  106
 Highest angular momentum                ...    2
 Maximum contraction depth               ...    5
 Integral package used                   ... LIBINT
 Integral threshhold            Thresh   ...  2.500e-11
 Primitive cut-off              TCut     ...  2.500e-12


------------------------------ INTEGRAL EVALUATION ----------------------------


 * One electron integrals 
 Pre-screening matrix                    ... done
 Shell pair data                         ... done (   0.001 sec)

Timings:
 Total evaluation time               ...     0.011 sec (   0.000 min)
 One electron matrix time            ...     0.017 sec (   0.000 min) =154.5%
 Schwartz matrix evaluation time     ...     0.195 sec (   0.003 min) =1772.7%

-------------------------------------------------------------------------------
                                 ORCA SCF
-------------------------------------------------------------------------------

------------
SCF SETTINGS
------------
Hamiltonian:
 Density Functional     Method          .... DFT(GTOs)
 Exchange Functional    Exchange        .... PBE
   PBE kappa parameter   XKappa         ....  0.804000
   PBE mue parameter    XMuePBE         ....  0.219520
 Correlation Functional Correlation     .... PBE
   PBE beta parameter  CBetaPBE         ....  0.066725
 LDA part of GGA corr.  LDAOpt          .... PW91-LDA
 Gradients option       PostSCFGGA      .... off
 Hybrid DFT is turned on
   Fraction HF Exchange ScalHFX         ....  0.250000
   Scaling of DF-GGA-X  ScalDFX         ....  0.750000
   Scaling of DF-GGA-C  ScalDFC         ....  1.000000
   Scaling of DF-LDA-C  ScalLDAC        ....  1.000000
   Perturbative correction              ....  0.000000
   Density functional embedding theory  .... OFF
   NL short-range parameter             ....  6.900000


General Settings:
 Integral files         IntName         .... butane
 Hartree-Fock type      HFTyp           .... RHF
 Total Charge           Charge          ....    0
 Multiplicity           Mult            ....    1
 Number of Electrons    NEL             ....   34
 Basis Dimension        Dim             ....  106
 Nuclear Repulsion      ENuc            ....    130.3827818829 Eh

Convergence Acceleration:
 DIIS                   CNVDIIS         .... on
   Start iteration      DIISMaxIt       ....    12
   Startup error        DIISStart       ....  0.200000
   # of expansion vecs  DIISMaxEq       ....     5
   Bias factor          DIISBfac        ....   1.050
   Max. coefficient     DIISMaxC        ....  10.000
 Newton-Raphson         CNVNR           .... off
 SOSCF                  CNVSOSCF        .... on
   Start iteration      SOSCFMaxIt      ....   150
   Startup grad/error   SOSCFStart      ....  0.003300
 Level Shifting         CNVShift        .... on
   Level shift para.    LevelShift      ....    0.2500
   Turn off err/grad.   ShiftErr        ....    0.0010
 Zerner damping         CNVZerner       .... off
 Static damping         CNVDamp         .... on
   Fraction old density DampFac         ....    0.7000
   Max. Damping (<1)    DampMax         ....    0.9800
   Min. Damping (>=0)   DampMin         ....    0.0000
   Turn off err/grad.   DampErr         ....    0.1000
 Fernandez-Rico         CNVRico         .... off

SCF Procedure:
 Maximum # iterations   MaxIter         ....   125
 SCF integral mode      SCFMode         .... Direct
   Integral package                     .... LIBINT
 Reset frequency        DirectResetFreq ....    20
 Integral Threshold     Thresh          ....  2.500e-11 Eh
 Primitive CutOff       TCut            ....  2.500e-12 Eh

Convergence Tolerance:
 Convergence Check Mode ConvCheckMode   .... Total+1el-Energy
 Convergence forced     ConvForced      .... 0
 Energy Change          TolE            ....  1.000e-08 Eh
 1-El. energy change                    ....  1.000e-05 Eh
 Orbital Gradient       TolG            ....  1.000e-05
 Orbital Rotation angle TolX            ....  1.000e-05
 DIIS Error             TolErr          ....  5.000e-07


Diagonalization of the overlap matrix:
Smallest eigenvalue                        ... 1.884e-03
Time for diagonalization                   ...    0.799 sec
Threshold for overlap eigenvalues          ... 1.000e-08
Number of eigenvalues below threshold      ... 0
Time for construction of square roots      ...    0.003 sec
Total time needed                          ...    0.803 sec

-------------------
DFT GRID GENERATION
-------------------

General Integration Accuracy     IntAcc      ...  4.340
Radial Grid Type                 RadialGrid  ... Gauss-Chebyshev
Angular Grid (max. acc.)         AngularGrid ... Lebedev-110
Angular grid pruning method      GridPruning ... 3 (G Style)
Weight generation scheme         WeightScheme... Becke
Basis function cutoff            BFCut       ...    1.0000e-11
Integration weight cutoff        WCut        ...    1.0000e-14
Grids for H and He will be reduced by one unit

# of grid points (after initial pruning)     ...  14564 (   0.0 sec)
# of grid points (after weights+screening)   ...  13640 (   0.0 sec)
nearest neighbour list constructed           ...    0.0 sec
Grid point re-assignment to atoms done       ...    0.0 sec
Grid point division into batches done        ...    0.0 sec
Reduced shell lists constructed in    0.1 sec

Total number of grid points                  ...    13640
Total number of batches                      ...      216
Average number of points per batch           ...       63
Average number of grid points per atom       ...      974
Average number of shells per batch           ...    44.35 (82.13%)
Average number of basis functions per batch  ...    85.39 (80.56%)
Average number of large shells per batch     ...    37.29 (84.08%)
Average number of large basis fcns per batch ...    70.06 (82.04%)
Maximum spatial batch extension              ...  17.80, 21.59, 21.59 au
Average spatial batch extension              ...   3.85,  3.86,  3.86 au

Time for grid setup =    0.170 sec

------------------------------
INITIAL GUESS: MODEL POTENTIAL
------------------------------
Loading Hartree-Fock densities                     ... done
Calculating cut-offs                               ... done
Setting up the integral package                    ... done
Initializing the effective Hamiltonian             ... done
Starting the Coulomb interaction                   ... done (   0.1 sec)
Reading the grid                                   ... done
Mapping shells                                     ... done
Starting the XC term evaluation                    ... done (   0.2 sec)
  promolecular density results
     # of electrons  =     33.988857351
     EX              =    -23.366295564
     EC              =     -1.077667160
     EX+EC           =    -24.443962724
Transforming the Hamiltonian                       ... done (   0.0 sec)
Diagonalizing the Hamiltonian                      ... done (   0.0 sec)
Back transforming the eigenvectors                 ... done (   0.0 sec)
Now organizing SCF variables                       ... done
                      ------------------
                      INITIAL GUESS DONE (   0.6 sec)
                      ------------------
--------------
SCF ITERATIONS
--------------
ITER       Energy         Delta-E        Max-DP      RMS-DP      [F,P]     Damp
               ***  Starting incremental Fock matrix formation  ***
  0   -157.9861834454   0.000000000000 0.06940612  0.00264288  0.1560186 0.7000
  1   -158.0555725572  -0.069389111817 0.04311991  0.00191517  0.0839828 0.7000
                               ***Turning on DIIS***
  2   -158.0849289633  -0.029356406071 0.06134722  0.00328540  0.0338180 0.0000
  3   -158.1244692730  -0.039540309739 0.03082664  0.00129442  0.0443324 0.0000
  4   -158.1367563379  -0.012287064866 0.00532444  0.00033898  0.0096242 0.0000
                      *** Initiating the SOSCF procedure ***
                           *** Shutting down DIIS ***
                      *** Re-Reading the Fockian *** 
                      *** Removing any level shift *** 
ITER      Energy       Delta-E        Grad      Rot      Max-DP    RMS-DP
  5   -158.13732695  -0.0005706151  0.000895  0.000895  0.001914  0.000129
               *** Restarting incremental Fock matrix formation ***
  6   -158.13736786  -0.0000409080  0.000386  0.000944  0.001292  0.000082
  7   -158.13736879  -0.0000009251  0.000350  0.000235  0.000825  0.000022
  8   -158.13737162  -0.0000028384  0.000018  0.000019  0.000031  0.000002
  9   -158.13737163  -0.0000000052  0.000007  0.000006  0.000011  0.000001
                  ***Gradient check signals convergence***
              ***Rediagonalizing the Fockian in SOSCF/NRSCF***

               *****************************************************
               *                     SUCCESS                       *
               *           SCF CONVERGED AFTER  10 CYCLES          *
               *****************************************************

Setting up the final grid:

General Integration Accuracy     IntAcc      ...  4.670
Radial Grid Type                 RadialGrid  ... Gauss-Chebyshev
Angular Grid (max. acc.)         AngularGrid ... Lebedev-302
Angular grid pruning method      GridPruning ... 3 (G Style)
Weight generation scheme         WeightScheme... Becke
Basis function cutoff            BFCut       ...    1.0000e-11
Integration weight cutoff        WCut        ...    1.0000e-14
Grids for H and He will be reduced by one unit

# of grid points (after initial pruning)     ...  58788 (   0.0 sec)
# of grid points (after weights+screening)   ...  54296 (   0.2 sec)
nearest neighbour list constructed           ...    0.0 sec
Grid point re-assignment to atoms done       ...    0.0 sec
Grid point division into batches done        ...    0.2 sec
Reduced shell lists constructed in    0.6 sec

Total number of grid points                  ...    54296
Total number of batches                      ...      852
Average number of points per batch           ...       63
Average number of grid points per atom       ...     3878
Average number of shells per batch           ...    40.95 (75.83%)
Average number of basis functions per batch  ...    78.27 (73.84%)
Average number of large shells per batch     ...    33.60 (82.05%)
Average number of large basis fcns per batch ...    62.36 (79.67%)
Maximum spatial batch extension              ...  18.45, 20.64, 18.67 au
Average spatial batch extension              ...   2.57,  2.65,  2.59 au

Final grid set up in    0.8 sec
Final integration                            ... done (   0.8 sec)
Change in XC energy                          ...    -0.000052902
Integrated number of electrons               ...    34.000200350
Previous integrated no of electrons          ...    33.997708712

----------------
TOTAL SCF ENERGY
----------------

Total Energy       :         -158.13742453 Eh           -4303.13809 eV

Components:
Nuclear Repulsion  :          130.38278188 Eh            3547.89587 eV
Electronic Energy  :         -288.52020641 Eh           -7851.03396 eV
One Electron Energy:         -469.09228178 Eh          -12764.64993 eV
Two Electron Energy:          180.57207537 Eh            4913.61597 eV

Virial components:
Potential Energy   :         -314.14227301 Eh           -8548.24583 eV
Kinetic Energy     :          156.00484847 Eh            4245.10774 eV
Virial Ratio       :            2.01366993


DFT components:
N(Alpha)           :       17.000100174991 electrons
N(Beta)            :       17.000100174991 electrons
N(Total)           :       34.000200349982 electrons
E(X)               :      -18.024437388823 Eh       
E(C)               :       -1.091232186175 Eh       
E(XC)              :      -19.115669574998 Eh       
DFET-embed. en.    :        0.000000000000 Eh       

---------------
SCF CONVERGENCE
---------------

  Last Energy change         ...   -5.8438e-10  Tolerance :   1.0000e-08
  Last MAX-Density change    ...    6.4613e-06  Tolerance :   1.0000e-07
  Last RMS-Density change    ...    3.2351e-07  Tolerance :   5.0000e-09
  Last Orbital Gradient      ...    2.2989e-06  Tolerance :   1.0000e-05
  Last Orbital Rotation      ...    3.7476e-06  Tolerance :   1.0000e-05

             **** THE GBW FILE WAS UPDATED (butane.gbw) ****
             **** DENSITY FILE WAS UPDATED (butane.scfp) ****
             **** ENERGY FILE WAS UPDATED (butane.en.tmp) ****
             **** THE GBW FILE WAS UPDATED (butane.gbw) ****
             **** DENSITY FILE WAS UPDATED (butane.scfp) ****
----------------
ORBITAL ENERGIES
----------------

  NO   OCC          E(Eh)            E(eV) 
   0   2.0000     -10.226633      -278.2808 
   1   2.0000     -10.226540      -278.2783 
   2   2.0000     -10.222497      -278.1683 
   3   2.0000     -10.222491      -278.1681 
   4   2.0000      -0.808518       -22.0009 
   5   2.0000      -0.733852       -19.9691 
   6   2.0000      -0.631573       -17.1860 
   7   2.0000      -0.579402       -15.7663 
   8   2.0000      -0.481943       -13.1143 
   9   2.0000      -0.436957       -11.8902 
  10   2.0000      -0.426060       -11.5937 
  11   2.0000      -0.420838       -11.4516 
  12   2.0000      -0.374223       -10.1831 
  13   2.0000      -0.356845        -9.7102 
  14   2.0000      -0.340438        -9.2638 
  15   2.0000      -0.332024        -9.0348 
  16   2.0000      -0.326394        -8.8816 
  17   0.0000       0.068304         1.8587 
  18   0.0000       0.091734         2.4962 
  19   0.0000       0.103913         2.8276 
  20   0.0000       0.110104         2.9961 
  21   0.0000       0.146665         3.9910 
  22   0.0000       0.155948         4.2435 
  23   0.0000       0.163080         4.4376 
  24   0.0000       0.168392         4.5822 
  25   0.0000       0.173821         4.7299 
  26   0.0000       0.181586         4.9412 
  27   0.0000       0.240156         6.5350 
  28   0.0000       0.242128         6.5886 
  29   0.0000       0.254073         6.9137 
  30   0.0000       0.426337        11.6012 
  31   0.0000       0.428293        11.6544 
  32   0.0000       0.436864        11.8877 
  33   0.0000       0.449481        12.2310 
  34   0.0000       0.462725        12.5914 
  35   0.0000       0.522857        14.2277 
  36   0.0000       0.540279        14.7017 
  37   0.0000       0.622089        16.9279 
  38   0.0000       0.636573        17.3220 
  39   0.0000       0.651083        17.7169 
  40   0.0000       0.665395        18.1063 
  41   0.0000       0.668601        18.1936 
  42   0.0000       0.689487        18.7619 
  43   0.0000       0.698013        18.9939 
  44   0.0000       0.707219        19.2444 
  45   0.0000       0.712943        19.4002 
  46   0.0000       0.719208        19.5706 
  47   0.0000       0.727951        19.8085 
  48   0.0000       0.728092        19.8124 
  49   0.0000       0.736031        20.0284 
  50   0.0000       0.758619        20.6431 
  51   0.0000       0.768309        20.9068 
  52   0.0000       0.832106        22.6428 
  53   0.0000       1.003298        27.3011 
  54   0.0000       1.013404        27.5761 
  55   0.0000       1.052400        28.6372 
  56   0.0000       1.126897        30.6644 
  57   0.0000       1.196939        32.5704 
  58   0.0000       1.259966        34.2854 
  59   0.0000       1.355570        36.8869 
  60   0.0000       1.370143        37.2835 
  61   0.0000       1.390070        37.8257 
  62   0.0000       1.489727        40.5375 
  63   0.0000       1.537278        41.8315 
  64   0.0000       1.538248        41.8578 
  65   0.0000       1.691950        46.0403 
  66   0.0000       1.736740        47.2591 
  67   0.0000       1.751058        47.6487 
  68   0.0000       1.767557        48.0977 
  69   0.0000       1.770667        48.1823 
  70   0.0000       1.774794        48.2946 
  71   0.0000       1.801691        49.0265 
  72   0.0000       1.802247        49.0416 
  73   0.0000       1.808367        49.2082 
  74   0.0000       1.840256        50.0759 
  75   0.0000       1.842786        50.1448 
  76   0.0000       1.872599        50.9560 
  77   0.0000       1.882837        51.2346 
  78   0.0000       1.890455        51.4419 
  79   0.0000       1.919614        52.2354 
  80   0.0000       1.948590        53.0238 
  81   0.0000       2.015102        54.8337 
  82   0.0000       2.068776        56.2943 
  83   0.0000       2.094618        56.9975 
  84   0.0000       2.169694        59.0404 
  85   0.0000       2.258259        61.4504 
  86   0.0000       2.291288        62.3491 
  87   0.0000       2.369094        64.4663 
  88   0.0000       2.387258        64.9606 
  89   0.0000       2.393632        65.1340 
  90   0.0000       2.451866        66.7187 
  91   0.0000       2.477206        67.4082 
  92   0.0000       2.522716        68.6466 
  93   0.0000       2.586391        70.3793 
  94   0.0000       2.615705        71.1770 
  95   0.0000       2.628157        71.5158 
  96   0.0000       2.711563        73.7854 
  97   0.0000       2.855542        77.7033 
  98   0.0000       2.877513        78.3011 
  99   0.0000       2.882638        78.4406 
 100   0.0000       2.891683        78.6867 
 101   0.0000       2.956833        80.4595 
 102   0.0000       3.002024        81.6892 
 103   0.0000       3.055729        83.1506 
 104   0.0000       3.074582        83.6636 
 105   0.0000       3.081733        83.8582 

                    ********************************
                    * MULLIKEN POPULATION ANALYSIS *
                    ********************************

-----------------------
MULLIKEN ATOMIC CHARGES
-----------------------
   0 C :   -0.077110
   1 C :   -0.124209
   2 C :   -0.124205
   3 C :   -0.077108
   4 H :    0.042180
   5 H :    0.042482
   6 H :    0.040069
   7 H :    0.037103
   8 H :    0.039485
   9 H :    0.037102
  10 H :    0.039484
  11 H :    0.042482
  12 H :    0.042179
  13 H :    0.040068
Sum of atomic charges:   -0.0000000

--------------------------------
MULLIKEN REDUCED ORBITAL CHARGES
--------------------------------
  0 C s       :     3.052724  s :     3.052724
      pz      :     1.014316  p :     2.996749
      px      :     0.990500
      py      :     0.991934
      dz2     :     0.007783  d :     0.027637
      dxz     :     0.002106
      dyz     :     0.005271
      dx2y2   :     0.007518
      dxy     :     0.004959
  1 C s       :     3.100704  s :     3.100704
      pz      :     1.015794  p :     2.987100
      px      :     0.956208
      py      :     1.015098
      dz2     :     0.008702  d :     0.036406
      dxz     :     0.005032
      dyz     :     0.005683
      dx2y2   :     0.008961
      dxy     :     0.008028
  2 C s       :     3.100700  s :     3.100700
      pz      :     1.015793  p :     2.987100
      px      :     0.956208
      py      :     1.015099
      dz2     :     0.008702  d :     0.036406
      dxz     :     0.005032
      dyz     :     0.005683
      dx2y2   :     0.008961
      dxy     :     0.008028
  3 C s       :     3.052721  s :     3.052721
      pz      :     1.014316  p :     2.996750
      px      :     0.990501
      py      :     0.991934
      dz2     :     0.007783  d :     0.027637
      dxz     :     0.002106
      dyz     :     0.005271
      dx2y2   :     0.007518
      dxy     :     0.004959
  4 H s       :     0.934860  s :     0.934860
      pz      :     0.004992  p :     0.022960
      px      :     0.012733
      py      :     0.005235
  5 H s       :     0.934516  s :     0.934516
      pz      :     0.013756  p :     0.023002
      px      :     0.004618
      py      :     0.004627
  6 H s       :     0.936907  s :     0.936907
      pz      :     0.006883  p :     0.023025
      px      :     0.004760
      py      :     0.011382
  7 H s       :     0.941096  s :     0.941096
      pz      :     0.006690  p :     0.021801
      px      :     0.004088
      py      :     0.011023
  8 H s       :     0.938754  s :     0.938754
      pz      :     0.013544  p :     0.021762
      px      :     0.003877
      py      :     0.004340
  9 H s       :     0.941097  s :     0.941097
      pz      :     0.006690  p :     0.021801
      px      :     0.004088
      py      :     0.011023
 10 H s       :     0.938754  s :     0.938754
      pz      :     0.013544  p :     0.021762
      px      :     0.003877
      py      :     0.004340
 11 H s       :     0.934516  s :     0.934516
      pz      :     0.013756  p :     0.023002
      px      :     0.004618
      py      :     0.004627
 12 H s       :     0.934861  s :     0.934861
      pz      :     0.004992  p :     0.022961
      px      :     0.012733
      py      :     0.005235
 13 H s       :     0.936907  s :     0.936907
      pz      :     0.006883  p :     0.023025
      px      :     0.004760
      py      :     0.011382


                     *******************************
                     * LOEWDIN POPULATION ANALYSIS *
                     *******************************

----------------------
LOEWDIN ATOMIC CHARGES
----------------------
   0 C :   -0.077310
   1 C :   -0.057333
   2 C :   -0.057332
   3 C :   -0.077309
   4 H :    0.028178
   5 H :    0.027656
   6 H :    0.027294
   7 H :    0.025523
   8 H :    0.025991
   9 H :    0.025522
  10 H :    0.025992
  11 H :    0.027657
  12 H :    0.028177
  13 H :    0.027293

-------------------------------
LOEWDIN REDUCED ORBITAL CHARGES
-------------------------------
  0 C s       :     2.854432  s :     2.854432
      pz      :     1.060901  p :     3.152774
      px      :     1.044821
      py      :     1.047052
      dz2     :     0.020046  d :     0.070104
      dxz     :     0.004927
      dyz     :     0.013075
      dx2y2   :     0.018225
      dxy     :     0.013831
  1 C s       :     2.851362  s :     2.851362
      pz      :     1.055546  p :     3.117814
      px      :     1.018187
      py      :     1.044081
      dz2     :     0.022259  d :     0.088157
      dxz     :     0.010518
      dyz     :     0.013845
      dx2y2   :     0.021634
      dxy     :     0.019902
  2 C s       :     2.851360  s :     2.851360
      pz      :     1.055546  p :     3.117815
      px      :     1.018187
      py      :     1.044082
      dz2     :     0.022259  d :     0.088158
      dxz     :     0.010518
      dyz     :     0.013845
      dx2y2   :     0.021635
      dxy     :     0.019902
  3 C s       :     2.854430  s :     2.854430
      pz      :     1.060900  p :     3.152775
      px      :     1.044823
      py      :     1.047052
      dz2     :     0.020045  d :     0.070104
      dxz     :     0.004927
      dyz     :     0.013074
      dx2y2   :     0.018226
      dxy     :     0.013832
  4 H s       :     0.907705  s :     0.907705
      pz      :     0.012822  p :     0.064117
      px      :     0.036563
      py      :     0.014733
  5 H s       :     0.908429  s :     0.908429
      pz      :     0.038862  p :     0.063915
      px      :     0.012378
      py      :     0.012675
  6 H s       :     0.908804  s :     0.908804
      pz      :     0.018244  p :     0.063902
      px      :     0.012832
      py      :     0.032827
  7 H s       :     0.910371  s :     0.910371
      pz      :     0.018232  p :     0.064106
      px      :     0.013529
      py      :     0.032345
  8 H s       :     0.909887  s :     0.909887
      pz      :     0.038444  p :     0.064122
      px      :     0.012938
      py      :     0.012739
  9 H s       :     0.910371  s :     0.910371
      pz      :     0.018232  p :     0.064107
      px      :     0.013530
      py      :     0.032345
 10 H s       :     0.909887  s :     0.909887
      pz      :     0.038445  p :     0.064122
      px      :     0.012938
      py      :     0.012739
 11 H s       :     0.908429  s :     0.908429
      pz      :     0.038862  p :     0.063913
      px      :     0.012377
      py      :     0.012674
 12 H s       :     0.907704  s :     0.907704
      pz      :     0.012822  p :     0.064119
      px      :     0.036563
      py      :     0.014733
 13 H s       :     0.908803  s :     0.908803
      pz      :     0.018244  p :     0.063903
      px      :     0.012832
      py      :     0.032827


                      *****************************
                      * MAYER POPULATION ANALYSIS *
                      *****************************

  NA   - Mulliken gross atomic population
  ZA   - Total nuclear charge
  QA   - Mulliken gross atomic charge
  VA   - Mayer's total valence
  BVA  - Mayer's bonded valence
  FA   - Mayer's free valence

  ATOM       NA         ZA         QA         VA         BVA        FA
  0 C      6.0771     6.0000    -0.0771     3.9870     3.9870    -0.0000
  1 C      6.1242     6.0000    -0.1242     4.0549     4.0549     0.0000
  2 C      6.1242     6.0000    -0.1242     4.0549     4.0549    -0.0000
  3 C      6.0771     6.0000    -0.0771     3.9870     3.9870    -0.0000
  4 H      0.9578     1.0000     0.0422     0.9792     0.9792    -0.0000
  5 H      0.9575     1.0000     0.0425     0.9846     0.9846     0.0000
  6 H      0.9599     1.0000     0.0401     0.9847     0.9847    -0.0000
  7 H      0.9629     1.0000     0.0371     0.9734     0.9734    -0.0000
  8 H      0.9605     1.0000     0.0395     0.9731     0.9731    -0.0000
  9 H      0.9629     1.0000     0.0371     0.9734     0.9734     0.0000
 10 H      0.9605     1.0000     0.0395     0.9731     0.9731    -0.0000
 11 H      0.9575     1.0000     0.0425     0.9846     0.9846     0.0000
 12 H      0.9578     1.0000     0.0422     0.9792     0.9792    -0.0000
 13 H      0.9599     1.0000     0.0401     0.9847     0.9847     0.0000

  Mayer bond orders larger than 0.100000
B(  0-C ,  1-C ) :   1.0886 B(  0-C ,  4-H ) :   0.9709 B(  0-C ,  5-H ) :   0.9716 
B(  0-C ,  6-H ) :   0.9708 B(  1-C ,  2-C ) :   1.0625 B(  1-C ,  7-H ) :   0.9519 
B(  1-C ,  8-H ) :   0.9526 B(  2-C ,  3-C ) :   1.0886 B(  2-C ,  9-H ) :   0.9519 
B(  2-C , 10-H ) :   0.9526 B(  3-C , 11-H ) :   0.9716 B(  3-C , 12-H ) :   0.9709 
B(  3-C , 13-H ) :   0.9708 

-------
TIMINGS
-------

Total SCF time: 0 days 0 hours 0 min 21 sec 

Total time                  ....      21.855 sec
Sum of individual times     ....      20.600 sec  ( 94.3%)

Fock matrix formation       ....      19.130 sec  ( 87.5%)
  XC integration            ....       3.124 sec  ( 16.3% of F)
    Basis function eval.    ....       1.001 sec  ( 32.0% of XC)
    Density eval.           ....       0.725 sec  ( 23.2% of XC)
    XC-Functional eval.     ....       0.197 sec  (  6.3% of XC)
    XC-Potential eval.      ....       0.959 sec  ( 30.7% of XC)
Diagonalization             ....       0.018 sec  (  0.1%)
Density matrix formation    ....       0.002 sec  (  0.0%)
Population analysis         ....       0.010 sec  (  0.0%)
Initial guess               ....       0.452 sec  (  2.1%)
Orbital Transformation      ....       0.000 sec  (  0.0%)
Orbital Orthonormalization  ....       0.000 sec  (  0.0%)
DIIS solution               ....       0.009 sec  (  0.0%)
SOSCF solution              ....       0.012 sec  (  0.1%)
Grid generation             ....       0.967 sec  (  4.4%)

-------------------------   --------------------
FINAL SINGLE POINT ENERGY      -158.137424532012
-------------------------   --------------------

------------------------------------------------------------------------------
                         ORCA SCF GRADIENT CALCULATION
------------------------------------------------------------------------------

Gradient of the Kohn-Sham DFT energy:
Kohn-Sham wavefunction type      ... RKS
Hartree-Fock exchange scaling    ...    0.250
Number of operators              ...    1
Number of atoms                  ...   14
Basis set dimensions             ...  106
Integral neglect threshold       ... 2.5e-11
Integral primitive cutoff        ... 2.5e-12

Nuclear repulsion gradient       ... done
One Electron Gradient            ... done
Pre-screening matrix             ... done
Starting the two electron gradient:
Two electron gradient done
Exchange-correlation gradient    ... done

------------------
CARTESIAN GRADIENT
------------------

   1   C   :    0.004033302    0.004211821   -0.002226628
   2   C   :   -0.000990769   -0.011060827    0.005307636
   3   C   :    0.000992962    0.011065325   -0.005305669
   4   C   :   -0.004028135   -0.004212255    0.002217400
   5   H   :   -0.003869023   -0.005504238    0.002736243
   6   H   :    0.002140049   -0.001351395   -0.006376788
   7   H   :    0.002685777    0.004162492    0.004929679
   8   H   :   -0.002078323   -0.002689693   -0.005822845
   9   H   :   -0.001627238    0.002934076    0.005885537
  10   H   :    0.002076574    0.002686717    0.005820645
  11   H   :    0.001627248   -0.002934725   -0.005884590
  12   H   :   -0.002140768    0.001350187    0.006382514
  13   H   :    0.003863478    0.005502913   -0.002735381
  14   H   :   -0.002685134   -0.004160399   -0.004927752

Difference to translation invariance:
           :   -0.0000000000   -0.0000000000    0.0000000000

Norm of the cartesian gradient     ...    0.0293406982
RMS gradient                       ...    0.0045273680
MAX gradient                       ...    0.0110653247

-------
TIMINGS
-------

Total SCF gradient time            ...        9.931 sec

One electron gradient       ....       0.076 sec  (  0.8%)
Prescreening matrices       ....       0.054 sec  (  0.5%)
Two electron gradient       ....       4.767 sec  ( 48.0%)
XC gradient                 ....       4.727 sec  ( 47.6%)
------------------------------------------------------------------------------
                         ORCA GEOMETRY RELAXATION STEP
------------------------------------------------------------------------------

Reading the OPT-File                    .... done
Getting information on internals        .... done
Copying old internal coords+grads       .... done
Making the new internal coordinates     .... (new redundants).... done
Validating the new internal coordinates .... (new redundants).... done
Calculating the B-matrix                .... done
Calculating the G,G- and P matrices     .... done
Transforming gradient to internals      .... done
Projecting the internal gradient        .... done
Number of atoms                         ....  14
Number of internal coordinates          ....  64
Current Energy                          ....  -158.137424532 Eh
Current gradient norm                   ....     0.029340698 Eh/bohr
Maximum allowed component of the step   ....  0.300
Current trust radius                    ....  0.300
Evaluating the initial hessian          ....  (Almloef) done
Projecting the Hessian                  .... done
Forming the augmented Hessian           .... done
Diagonalizing the augmented Hessian     .... done
Last element of RFO vector              ....  0.992793365
Lowest eigenvalues of augmented Hessian:
 -0.002805110  0.010939162  0.011467481  0.011467482  0.078170026
Length of the computed step             ....  0.120708690
The final length of the internal step   ....  0.120708690
Converting the step to cartesian space:
 Initial RMS(Int)=    0.0150885862
Transforming coordinates:
 Iter   0:  RMS(Cart)=    0.0246901961 RMS(Int)=    1.1107921044
 Iter   1:  RMS(Cart)=    0.0003638718 RMS(Int)=    0.0001362056
 Iter   2:  RMS(Cart)=    0.0000028698 RMS(Int)=    0.0000023366
 Iter   3:  RMS(Cart)=    0.0000000789 RMS(Int)=    0.0000000331
done
Storing new coordinates                 .... done

                                .--------------------.
          ----------------------|Geometry convergence|-------------------------
          Item                value                   Tolerance       Converged
          ---------------------------------------------------------------------
          RMS gradient        0.0033888251            0.0001000000      NO
          MAX gradient        0.0075862137            0.0003000000      NO
          RMS step            0.0150885862            0.0020000000      NO
          MAX step            0.0387584560            0.0040000000      NO
          ........................................................
          Max(Bonds)      0.0101      Max(Angles)    1.73
          Max(Dihed)        2.22      Max(Improp)    0.00
          ---------------------------------------------------------------------

The optimization has not yet converged - more geometry cycles are needed


    ---------------------------------------------------------------------------
                         Redundant Internal Coordinates
                            (Angstroem and degrees)

        Definition                    Value    dE/dq     Step     New-Value
    ----------------------------------------------------------------------------
     1. B(C   1,C   0)                1.5259 -0.001836  0.0025    1.5284   
     2. B(C   2,C   1)                1.5327  0.003023 -0.0043    1.5284   
     3. B(C   3,C   2)                1.5259 -0.001836  0.0025    1.5284   
     4. B(H   4,C   0)                1.1104  0.005757 -0.0090    1.1014   
     5. B(H   5,C   0)                1.1109  0.006277 -0.0099    1.1010   
     6. B(H   6,C   0)                1.1109  0.006410 -0.0101    1.1008   
     7. B(H   7,C   1)                1.1120  0.005521 -0.0087    1.1032   
     8. B(H   8,C   1)                1.1120  0.005550 -0.0088    1.1032   
     9. B(H   9,C   2)                1.1120  0.005517 -0.0087    1.1032   
    10. B(H  10,C   2)                1.1120  0.005549 -0.0088    1.1032   
    11. B(H  11,C   3)                1.1109  0.006283 -0.0099    1.1010   
    12. B(H  12,C   3)                1.1104  0.005751 -0.0090    1.1014   
    13. B(H  13,C   3)                1.1109  0.006407 -0.0101    1.1008   
    14. A(H   4,C   0,H   6)          108.67  0.003607   -0.57    108.10   
    15. A(H   4,C   0,H   5)          108.67  0.003540   -0.54    108.13   
    16. A(H   5,C   0,H   6)          109.19  0.003170   -0.82    108.37   
    17. A(C   1,C   0,H   4)          109.59 -0.005653    1.14    110.73   
    18. A(C   1,C   0,H   5)          110.34 -0.002202    0.38    110.72   
    19. A(C   1,C   0,H   6)          110.34 -0.002256    0.38    110.72   
    20. A(H   7,C   1,H   8)          108.72  0.000713   -1.34    107.39   
    21. A(C   2,C   1,H   8)          109.64  0.002762   -0.48    109.16   
    22. A(C   0,C   1,H   8)          108.82  0.000732    0.26    109.09   
    23. A(C   2,C   1,H   7)          109.64  0.002742   -0.48    109.16   
    24. A(C   0,C   1,C   2)          111.14 -0.007586    1.73    112.87   
    25. A(C   0,C   1,H   7)          108.82  0.000763    0.25    109.08   
    26. A(C   3,C   2,H   9)          108.82  0.000764    0.25    109.08   
    27. A(C   1,C   2,H   9)          109.64  0.002742   -0.48    109.16   
    28. A(H   9,C   2,H  10)          108.72  0.000713   -1.34    107.39   
    29. A(C   3,C   2,H  10)          108.82  0.000731    0.26    109.09   
    30. A(C   1,C   2,H  10)          109.64  0.002762   -0.48    109.16   
    31. A(C   1,C   2,C   3)          111.14 -0.007586    1.73    112.87   
    32. A(H  12,C   3,H  13)          108.67  0.003607   -0.57    108.10   
    33. A(H  11,C   3,H  13)          109.19  0.003170   -0.82    108.37   
    34. A(C   2,C   3,H  13)          110.34 -0.002255    0.38    110.72   
    35. A(H  11,C   3,H  12)          108.67  0.003540   -0.54    108.13   
    36. A(C   2,C   3,H  12)          109.59 -0.005654    1.14    110.73   
    37. A(C   2,C   3,H  11)          110.34 -0.002202    0.38    110.72   
    38. D(H   7,C   1,C   0,H   6)    178.79  0.000335   -0.39    178.40   
    39. D(H   8,C   1,C   0,H   5)   -178.79 -0.000319    0.39   -178.40   
    40. D(C   2,C   1,C   0,H   5)     60.37  0.000535   -0.27     60.10   
    41. D(H   8,C   1,C   0,H   4)    -59.16 -0.000872    0.67    -58.49   
    42. D(C   2,C   1,C   0,H   4)    180.00 -0.000018    0.01    180.01   
    43. D(H   7,C   1,C   0,H   5)    -60.46  0.001392   -0.92    -61.39   
    44. D(H   8,C   1,C   0,H   6)     60.46 -0.001375    0.92     61.38   
    45. D(H   7,C   1,C   0,H   4)     59.16  0.000838   -0.64     58.52   
    46. D(C   2,C   1,C   0,H   6)    -60.37 -0.000522    0.26    -60.11   
    47. D(H   9,C   2,C   1,H   7)    180.00 -0.000000    0.00    180.00   
    48. D(C   3,C   2,C   1,H   8)     59.65  0.002127   -1.12     58.53   
    49. D(C   3,C   2,C   1,H   7)    -59.65 -0.002100    1.10    -58.54   
    50. D(C   3,C   2,C   1,C   0)    180.00  0.000000   -0.00    180.00   
    51. D(H   9,C   2,C   1,H   8)    -60.71  0.004227   -2.22    -62.93   
    52. D(H  10,C   2,C   1,H   8)    180.00 -0.000000    0.00    180.00   
    53. D(H  10,C   2,C   1,H   7)     60.71 -0.004228    2.22     62.93   
    54. D(H  10,C   2,C   1,C   0)    -59.65 -0.002127    1.12    -58.53   
    55. D(H   9,C   2,C   1,C   0)     59.65  0.002100   -1.10     58.54   
    56. D(H  13,C   3,C   2,H   9)   -178.79 -0.000335    0.39   -178.40   
    57. D(H  13,C   3,C   2,C   1)     60.37  0.000522   -0.26     60.11   
    58. D(H  12,C   3,C   2,H  10)     59.16  0.000872   -0.67     58.49   
    59. D(H  12,C   3,C   2,H   9)    -59.16 -0.000839    0.64    -58.52   
    60. D(H  12,C   3,C   2,C   1)   -180.00  0.000019   -0.01   -180.01   
    61. D(H  11,C   3,C   2,H  10)    178.79  0.000319   -0.39    178.40   
    62. D(H  11,C   3,C   2,H   9)     60.46 -0.001392    0.92     61.39   
    63. D(H  13,C   3,C   2,H  10)    -60.46  0.001375   -0.92    -61.38   
    64. D(H  11,C   3,C   2,C   1)    -60.37 -0.000535    0.27    -60.10   
    ----------------------------------------------------------------------------

         *************************************************************
         *                GEOMETRY OPTIMIZATION CYCLE   2            *
         *************************************************************
---------------------------------
CARTESIAN COORDINATES (ANGSTROEM)
---------------------------------
  C     -2.280423    0.969237   -0.376018
  C     -1.289430   -0.095116    0.094238
  C      0.166458    0.297834   -0.154658
  C      1.157451   -0.766517    0.315600
  H     -3.316421    0.650915   -0.180116
  H     -2.175806    1.148077   -1.457375
  H     -2.109519    1.920452    0.151056
  H     -1.502952   -1.042748   -0.428775
  H     -1.436674   -0.273648    1.172879
  H      0.379974    1.245470    0.368350
  H      0.313702    0.476358   -1.233300
  H      1.052834   -0.945355    1.396958
  H      2.193449   -0.448193    0.119698
  H      0.986546   -1.717736   -0.211468

----------------------------
CARTESIAN COORDINATES (A.U.)
----------------------------
  NO LB      ZA    FRAG     MASS         X           Y           Z
   0 C     6.0000    0    12.011   -4.309375    1.831592   -0.710570
   1 C     6.0000    0    12.011   -2.436670   -0.179744    0.178084
   2 C     6.0000    0    12.011    0.314560    0.562825   -0.292261
   3 C     6.0000    0    12.011    2.187266   -1.448507    0.596397
   4 H     1.0000    0     1.008   -6.267128    1.230051   -0.340371
   5 H     1.0000    0     1.008   -4.111677    2.169550   -2.754039
   6 H     1.0000    0     1.008   -3.986413    3.629129    0.285455
   7 H     1.0000    0     1.008   -2.840167   -1.970508   -0.810267
   8 H     1.0000    0     1.008   -2.714920   -0.517119    2.216421
   9 H     1.0000    0     1.008    0.718047    2.353597    0.696080
  10 H     1.0000    0     1.008    0.592811    0.900186   -2.330600
  11 H     1.0000    0     1.008    1.989568   -1.786461    2.639867
  12 H     1.0000    0     1.008    4.145018   -0.846963    0.226197
  13 H     1.0000    0     1.008    1.864302   -3.246050   -0.399616

--------------------------------
INTERNAL COORDINATES (ANGSTROEM)
--------------------------------
 C      0   0   0     0.000000000000     0.00000000     0.00000000
 C      1   0   0     1.528415697075     0.00000000     0.00000000
 C      2   1   0     1.528387833466   112.85990621     0.00000000
 C      3   2   1     1.528415556061   112.85993693   179.99989861
 H      1   2   3     1.101362088211   110.72613878   180.01005533
 H      1   2   3     1.101027485929   110.71275509    60.10281617
 H      1   2   3     1.100829837948   110.71726562   299.88977711
 H      2   1   3     1.103240601553   109.07513448   238.50536848
 H      2   1   3     1.103186887480   109.08594187   121.50046237
 H      3   2   1     1.103240302197   109.14700707    58.54573113
 H      3   2   1     1.103187005175   109.14569177   301.46618219
 H      4   3   2     1.101027694445   110.71273962   299.89714952
 H      4   3   2     1.101362027196   110.72606784   179.98996660
 H      4   3   2     1.100829652994   110.71736630    60.10993698

---------------------------
INTERNAL COORDINATES (A.U.)
---------------------------
 C      0   0   0     0.000000000000     0.00000000     0.00000000
 C      1   0   0     2.888287086258     0.00000000     0.00000000
 C      2   1   0     2.888234431668   112.85990621     0.00000000
 C      3   2   1     2.888286819780   112.85993693   179.99989861
 H      1   2   3     2.081272721002   110.72613878   180.01005533
 H      1   2   3     2.080640414326   110.71275509    60.10281617
 H      1   2   3     2.080266913771   110.71726562   299.88977711
 H      2   1   3     2.084822596758   109.07513448   238.50536848
 H      2   1   3     2.084721091869   109.08594187   121.50046237
 H      3   2   1     2.084822031057   109.14700707    58.54573113
 H      3   2   1     2.084721314281   109.14569177   301.46618219
 H      4   3   2     2.080640808364   110.71273962   299.89714952
 H      4   3   2     2.081272605701   110.72606784   179.98996660
 H      4   3   2     2.080266564259   110.71736630    60.10993698


Diagonalization of the overlap matrix:
Smallest eigenvalue                        ... 1.958e-03
Time for diagonalization                   ...    0.005 sec
Threshold for overlap eigenvalues          ... 1.000e-08
Number of eigenvalues below threshold      ... 0
Time for construction of square roots      ...    0.003 sec
Total time needed                          ...    0.008 sec

-------------------
DFT GRID GENERATION
-------------------

General Integration Accuracy     IntAcc      ...  4.340
Radial Grid Type                 RadialGrid  ... Gauss-Chebyshev
Angular Grid (max. acc.)         AngularGrid ... Lebedev-110
Angular grid pruning method      GridPruning ... 3 (G Style)
Weight generation scheme         WeightScheme... Becke
Basis function cutoff            BFCut       ...    1.0000e-11
Integration weight cutoff        WCut        ...    1.0000e-14
Grids for H and He will be reduced by one unit

# of grid points (after initial pruning)     ...  14564 (   0.0 sec)
# of grid points (after weights+screening)   ...  13642 (   0.0 sec)
nearest neighbour list constructed           ...    0.0 sec
Grid point re-assignment to atoms done       ...    0.0 sec
Grid point division into batches done        ...    0.0 sec
Reduced shell lists constructed in    0.1 sec

Total number of grid points                  ...    13642
Total number of batches                      ...      218
Average number of points per batch           ...       62
Average number of grid points per atom       ...      974
Average number of shells per batch           ...    44.16 (81.78%)
Average number of basis functions per batch  ...    85.00 (80.19%)
Average number of large shells per batch     ...    37.07 (83.95%)
Average number of large basis fcns per batch ...    69.60 (81.89%)
Maximum spatial batch extension              ...  17.83, 21.59, 21.59 au
Average spatial batch extension              ...   3.83,  3.83,  3.81 au

Time for grid setup =    0.160 sec

--------------
SCF ITERATIONS
--------------
ITER       Energy         Delta-E        Max-DP      RMS-DP      [F,P]     Damp
               ***  Starting incremental Fock matrix formation  ***
                      *** Initiating the SOSCF procedure ***
                      *** Re-Reading the Fockian *** 
                      *** Removing any level shift *** 
ITER      Energy       Delta-E        Grad      Rot      Max-DP    RMS-DP
  0   -158.13871205 -158.1387120503  0.002990  0.002990  0.006813  0.000319
               *** Restarting incremental Fock matrix formation ***
  1   -158.13897778  -0.0002657288  0.000928  0.000845  0.002574  0.000101
  2   -158.13899082  -0.0000130445  0.000454  0.000539  0.000840  0.000045
  3   -158.13899549  -0.0000046627  0.000110  0.000137  0.000175  0.000014
  4   -158.13899591  -0.0000004210  0.000028  0.000035  0.000062  0.000003
  5   -158.13899591  -0.0000000047  0.000018  0.000014  0.000031  0.000001
                  ***Gradient check signals convergence***
              ***Rediagonalizing the Fockian in SOSCF/NRSCF***

               *****************************************************
               *                     SUCCESS                       *
               *           SCF CONVERGED AFTER   6 CYCLES          *
               *****************************************************

Setting up the final grid:

General Integration Accuracy     IntAcc      ...  4.670
Radial Grid Type                 RadialGrid  ... Gauss-Chebyshev
Angular Grid (max. acc.)         AngularGrid ... Lebedev-302
Angular grid pruning method      GridPruning ... 3 (G Style)
Weight generation scheme         WeightScheme... Becke
Basis function cutoff            BFCut       ...    1.0000e-11
Integration weight cutoff        WCut        ...    1.0000e-14
Grids for H and He will be reduced by one unit

# of grid points (after initial pruning)     ...  58788 (   0.0 sec)
# of grid points (after weights+screening)   ...  54314 (   0.2 sec)
nearest neighbour list constructed           ...    0.0 sec
Grid point re-assignment to atoms done       ...    0.0 sec
Grid point division into batches done        ...    0.2 sec
Reduced shell lists constructed in    0.9 sec

Total number of grid points                  ...    54314
Total number of batches                      ...      854
Average number of points per batch           ...       63
Average number of grid points per atom       ...     3880
Average number of shells per batch           ...    40.88 (75.70%)
Average number of basis functions per batch  ...    78.11 (73.69%)
Average number of large shells per batch     ...    33.53 (82.03%)
Average number of large basis fcns per batch ...    62.20 (79.62%)
Maximum spatial batch extension              ...  17.71, 20.64, 19.73 au
Average spatial batch extension              ...   2.58,  2.63,  2.55 au

Final grid set up in    1.1 sec
Final integration                            ... done (   0.8 sec)
Change in XC energy                          ...    -0.000115775
Integrated number of electrons               ...    34.000178504
Previous integrated no of electrons          ...    33.997190131
Total Energy       :         -158.13911169 Eh           -4303.18400 eV
  Last Energy change         ...   -6.9543e-09  Tolerance :   1.0000e-08
  Last MAX-Density change    ...    5.6913e-06  Tolerance :   1.0000e-07
             **** THE GBW FILE WAS UPDATED (butane.gbw) ****
             **** DENSITY FILE WAS UPDATED (butane.scfp) ****
             **** ENERGY FILE WAS UPDATED (butane.en.tmp) ****
             **** THE GBW FILE WAS UPDATED (butane.gbw) ****
             **** DENSITY FILE WAS UPDATED (butane.scfp) ****
Total SCF time: 0 days 0 hours 0 min 14 sec 

-------------------------   --------------------
FINAL SINGLE POINT ENERGY      -158.139111693707
-------------------------   --------------------

------------------------------------------------------------------------------
                         ORCA SCF GRADIENT CALCULATION
------------------------------------------------------------------------------

Gradient of the Kohn-Sham DFT energy:
Kohn-Sham wavefunction type      ... RKS
Hartree-Fock exchange scaling    ...    0.250
Number of operators              ...    1
Number of atoms                  ...   14
Basis set dimensions             ...  106
Integral neglect threshold       ... 2.5e-11
Integral primitive cutoff        ... 2.5e-12

Nuclear repulsion gradient       ... done
One Electron Gradient            ... done
Pre-screening matrix             ... done
Starting the two electron gradient:
Two electron gradient done
Exchange-correlation gradient    ... done

------------------
CARTESIAN GRADIENT
------------------

   1   C   :   -0.002423059    0.005899039   -0.002678298
   2   C   :   -0.000363400   -0.008221035    0.003944903
   3   C   :    0.000363987    0.008221720   -0.003944162
   4   C   :    0.002423218   -0.005899314    0.002677253
   5   H   :    0.000357095   -0.001565512    0.000695240
   6   H   :    0.000709839   -0.001322779    0.000191327
   7   H   :    0.000775816   -0.001006948    0.000853950
   8   H   :   -0.000087652    0.001497690   -0.001720458
   9   H   :   -0.000035760    0.002281609   -0.000087822
  10   H   :    0.000087090   -0.001497608    0.001720328
  11   H   :    0.000035868   -0.002282007    0.000087726
  12   H   :   -0.000709960    0.001322571   -0.000191339
  13   H   :   -0.000357157    0.001565788   -0.000695149
  14   H   :   -0.000775924    0.001006785   -0.000853500

Difference to translation invariance:
           :    0.0000000000    0.0000000000   -0.0000000000

Norm of the cartesian gradient     ...    0.0172770210
RMS gradient                       ...    0.0026659022
MAX gradient                       ...    0.0082217197

-------
TIMINGS
-------

Total SCF gradient time            ...       10.417 sec

One electron gradient       ....       0.075 sec  (  0.7%)
Prescreening matrices       ....       0.055 sec  (  0.5%)
Two electron gradient       ....       5.193 sec  ( 49.9%)
XC gradient                 ....       4.818 sec  ( 46.3%)
------------------------------------------------------------------------------
                         ORCA GEOMETRY RELAXATION STEP
------------------------------------------------------------------------------

Reading the OPT-File                    .... done
Getting information on internals        .... done
Copying old internal coords+grads       .... done
Making the new internal coordinates     .... (new redundants).... done
Validating the new internal coordinates .... (new redundants).... done
Calculating the B-matrix                .... done
Calculating the G,G- and P matrices     .... done
Transforming gradient to internals      .... done
Projecting the internal gradient        .... done
Number of atoms                         ....  14
Number of internal coordinates          ....  64
Current Energy                          ....  -158.139111694 Eh
Current gradient norm                   ....     0.017277021 Eh/bohr
Maximum allowed component of the step   ....  0.300
Current trust radius                    ....  0.300
Updating the Hessian (BFGS)             .... done
Forming the augmented Hessian           .... done
Diagonalizing the augmented Hessian     .... done
Last element of RFO vector              ....  0.997617421
Lowest eigenvalues of augmented Hessian:
 -0.000442784  0.010939162  0.011467481  0.011467486  0.070994616
Length of the computed step             ....  0.069153757
The final length of the internal step   ....  0.069153757
Converting the step to cartesian space:
 Initial RMS(Int)=    0.0086442197
Transforming coordinates:
 Iter   0:  RMS(Cart)=    0.0084119631 RMS(Int)=    0.0086555049
 Iter   1:  RMS(Cart)=    0.0000992702 RMS(Int)=    0.0000422929
 Iter   2:  RMS(Cart)=    0.0000006718 RMS(Int)=    0.0000004602
 Iter   3:  RMS(Cart)=    0.0000000057 RMS(Int)=    0.0000000037
done
Storing new coordinates                 .... done

                                .--------------------.
          ----------------------|Geometry convergence|-------------------------
          Item                value                   Tolerance       Converged
          ---------------------------------------------------------------------
          Energy change      -0.0016871617            0.0000050000      NO
          RMS gradient        0.0009752310            0.0001000000      NO
          MAX gradient        0.0020603012            0.0003000000      NO
          RMS step            0.0086442197            0.0020000000      NO
          MAX step            0.0250585513            0.0040000000      NO
          ........................................................
          Max(Bonds)      0.0037      Max(Angles)    1.04
          Max(Dihed)        1.44      Max(Improp)    0.00
          ---------------------------------------------------------------------

The optimization has not yet converged - more geometry cycles are needed


    ---------------------------------------------------------------------------
                         Redundant Internal Coordinates
                            (Angstroem and degrees)

        Definition                    Value    dE/dq     Step     New-Value
    ----------------------------------------------------------------------------
     1. B(C   1,C   0)                1.5284  0.002060 -0.0034    1.5251   
     2. B(C   2,C   1)                1.5284  0.001838 -0.0037    1.5246   
     3. B(C   3,C   2)                1.5284  0.002060 -0.0034    1.5251   
     4. B(H   4,C   0)                1.1014  0.000240 -0.0014    1.1000   
     5. B(H   5,C   0)                1.1010 -0.000336 -0.0003    1.1007   
     6. B(H   6,C   0)                1.1008 -0.000340 -0.0003    1.1005   
     7. B(H   7,C   1)                1.1032 -0.000455  0.0000    1.1033   
     8. B(H   8,C   1)                1.1032 -0.000449  0.0000    1.1032   
     9. B(H   9,C   2)                1.1032 -0.000456  0.0000    1.1033   
    10. B(H  10,C   2)                1.1032 -0.000449  0.0000    1.1032   
    11. B(H  11,C   3)                1.1010 -0.000336 -0.0003    1.1007   
    12. B(H  12,C   3)                1.1014  0.000240 -0.0014    1.1000   
    13. B(H  13,C   3)                1.1008 -0.000340 -0.0003    1.1005   
    14. A(H   4,C   0,H   6)          108.10  0.001555   -0.37    107.73   
    15. A(H   4,C   0,H   5)          108.12  0.001513   -0.34    107.78   
    16. A(H   5,C   0,H   6)          108.37  0.001696   -0.61    107.76   
    17. A(C   1,C   0,H   4)          110.73 -0.002006    0.64    111.37   
    18. A(C   1,C   0,H   5)          110.71 -0.001262    0.32    111.03   
    19. A(C   1,C   0,H   6)          110.72 -0.001294    0.32    111.04   
    20. A(H   7,C   1,H   8)          107.38  0.000976   -1.04    106.33   
    21. A(C   2,C   1,H   8)          109.15  0.000483   -0.14    109.01   
    22. A(C   0,C   1,H   8)          109.09 -0.000294    0.28    109.37   
    23. A(C   2,C   1,H   7)          109.15  0.000475   -0.14    109.01   
    24. A(C   0,C   1,C   2)          112.86 -0.001249    0.71    113.57   
    25. A(C   0,C   1,H   7)          109.08 -0.000280    0.28    109.35   
    26. A(C   3,C   2,H   9)          109.08 -0.000280    0.28    109.35   
    27. A(C   1,C   2,H   9)          109.15  0.000474   -0.14    109.01   
    28. A(H   9,C   2,H  10)          107.38  0.000976   -1.04    106.33   
    29. A(C   3,C   2,H  10)          109.09 -0.000295    0.28    109.37   
    30. A(C   1,C   2,H  10)          109.15  0.000483   -0.14    109.01   
    31. A(C   1,C   2,C   3)          112.86 -0.001249    0.71    113.57   
    32. A(H  12,C   3,H  13)          108.10  0.001556   -0.37    107.73   
    33. A(H  11,C   3,H  13)          108.37  0.001696   -0.61    107.76   
    34. A(C   2,C   3,H  13)          110.72 -0.001294    0.32    111.04   
    35. A(H  11,C   3,H  12)          108.12  0.001513   -0.34    107.78   
    36. A(C   2,C   3,H  12)          110.73 -0.002006    0.64    111.37   
    37. A(C   2,C   3,H  11)          110.71 -0.001262    0.32    111.03   
    38. D(H   7,C   1,C   0,H   6)    178.40  0.000205   -0.30    178.09   
    39. D(H   8,C   1,C   0,H   5)   -178.40 -0.000193    0.29   -178.11   
    40. D(C   2,C   1,C   0,H   5)     60.10  0.000230   -0.18     59.92   
    41. D(H   8,C   1,C   0,H   4)    -58.49 -0.000434    0.47    -58.02   
    42. D(C   2,C   1,C   0,H   4)   -179.99 -0.000011    0.01   -179.98   
    43. D(H   7,C   1,C   0,H   5)    -61.39  0.000653   -0.64    -62.03   
    44. D(H   8,C   1,C   0,H   6)     61.39 -0.000641    0.63     62.02   
    45. D(H   7,C   1,C   0,H   4)     58.52  0.000413   -0.46     58.06   
    46. D(C   2,C   1,C   0,H   6)    -60.11 -0.000218    0.16    -59.95   
    47. D(H   9,C   2,C   1,H   7)    180.00 -0.000000    0.00    180.00   
    48. D(C   3,C   2,C   1,H   8)     58.53  0.000864   -0.72     57.81   
    49. D(C   3,C   2,C   1,H   7)    -58.55 -0.000852    0.71    -57.83   
    50. D(C   3,C   2,C   1,C   0)    180.00  0.000000   -0.00    180.00   
    51. D(H   9,C   2,C   1,H   8)    -62.92  0.001716   -1.44    -64.36   
    52. D(H  10,C   2,C   1,H   8)    180.00 -0.000000    0.00    180.00   
    53. D(H  10,C   2,C   1,H   7)     62.92 -0.001716    1.44     64.36   
    54. D(H  10,C   2,C   1,C   0)    -58.53 -0.000864    0.72    -57.81   
    55. D(H   9,C   2,C   1,C   0)     58.55  0.000852   -0.71     57.83   
    56. D(H  13,C   3,C   2,H   9)   -178.40 -0.000205    0.30   -178.09   
    57. D(H  13,C   3,C   2,C   1)     60.11  0.000218   -0.16     59.95   
    58. D(H  12,C   3,C   2,H  10)     58.49  0.000434   -0.47     58.02   
    59. D(H  12,C   3,C   2,H   9)    -58.52 -0.000413    0.46    -58.06   
    60. D(H  12,C   3,C   2,C   1)    179.99  0.000011   -0.01    179.98   
    61. D(H  11,C   3,C   2,H  10)    178.40  0.000193   -0.29    178.11   
    62. D(H  11,C   3,C   2,H   9)     61.39 -0.000653    0.64     62.03   
    63. D(H  13,C   3,C   2,H  10)    -61.39  0.000641   -0.63    -62.02   
    64. D(H  11,C   3,C   2,C   1)    -60.10 -0.000230    0.18    -59.92   
    ----------------------------------------------------------------------------

         *************************************************************
         *                GEOMETRY OPTIMIZATION CYCLE   3            *
         *************************************************************
---------------------------------
CARTESIAN COORDINATES (ANGSTROEM)
---------------------------------
  C     -2.283360    0.968618   -0.375637
  C     -1.289421   -0.089492    0.091553
  C      0.166448    0.292210   -0.151973
  C      1.160388   -0.765898    0.315220
  H     -3.320507    0.657015   -0.182783
  H     -2.183803    1.154357   -1.455991
  H     -2.118005    1.923525    0.145821
  H     -1.501509   -1.042487   -0.422313
  H     -1.435609   -0.278589    1.168564
  H      0.378533    1.245208    0.361890
  H      0.312636    0.481301   -1.228985
  H      1.060831   -0.951634    1.395574
  H      2.197535   -0.454295    0.122365
  H      0.995032   -1.720808   -0.206234

----------------------------
CARTESIAN COORDINATES (A.U.)
----------------------------
  NO LB      ZA    FRAG     MASS         X           Y           Z
   0 C     6.0000    0    12.011   -4.314926    1.830423   -0.709851
   1 C     6.0000    0    12.011   -2.436652   -0.169116    0.173010
   2 C     6.0000    0    12.011    0.314541    0.552196   -0.287188
   3 C     6.0000    0    12.011    2.192816   -1.447338    0.595680
   4 H     1.0000    0     1.008   -6.274849    1.241579   -0.345409
   5 H     1.0000    0     1.008   -4.126789    2.181418   -2.751424
   6 H     1.0000    0     1.008   -4.002449    3.634936    0.275561
   7 H     1.0000    0     1.008   -2.837440   -1.970015   -0.798056
   8 H     1.0000    0     1.008   -2.712907   -0.526456    2.208266
   9 H     1.0000    0     1.008    0.715324    2.353101    0.683872
  10 H     1.0000    0     1.008    0.590797    0.909527   -2.322445
  11 H     1.0000    0     1.008    2.004679   -1.798328    2.637252
  12 H     1.0000    0     1.008    4.152740   -0.858492    0.231237
  13 H     1.0000    0     1.008    1.880338   -3.251856   -0.389726

--------------------------------
INTERNAL COORDINATES (ANGSTROEM)
--------------------------------
[...]
     17       0.034183   0.000809   0.033412  -0.081947   0.015935  -0.017537
     18      -0.340116   0.266425   0.019939  -0.104176  -0.349815   0.352568
     19       0.118853  -0.030942   0.065545  -0.147662   0.018011  -0.024423
     20      -0.167219   0.009066  -0.137362   0.326990   0.039560  -0.035817
     21       0.093351  -0.350449  -0.072890   0.008110  -0.005360  -0.042662
     22      -0.006225   0.070282  -0.190404   0.129351  -0.022474   0.034446
     23      -0.022857  -0.015611   0.426828  -0.268061   0.011949  -0.010537
     24       0.094196  -0.350823  -0.095851   0.022688   0.007099   0.042181
     25       0.011343   0.067343  -0.449005   0.289092   0.028978  -0.036869
     26       0.012581  -0.021345  -0.112808   0.065916  -0.008757   0.015971
     27       0.093351   0.350449   0.072890   0.008110   0.005360  -0.042662
     28      -0.006225  -0.070282   0.190405   0.129350   0.022474   0.034446
     29      -0.022857   0.015611  -0.426830  -0.268059  -0.011949  -0.010537
     30       0.094196   0.350823   0.095851   0.022688  -0.007099   0.042181
     31       0.011343  -0.067343   0.449007   0.289090  -0.028978  -0.036870
     32       0.012581   0.021345   0.112807   0.065916   0.008757   0.015971
     33      -0.330369  -0.264861  -0.030992  -0.124847  -0.354095  -0.355237
     34       0.214811   0.034696  -0.147344  -0.343626  -0.009723   0.000973
     35       0.034182  -0.000809  -0.033412  -0.081946  -0.015935  -0.017537
     36      -0.085088  -0.033479  -0.019256  -0.058800  -0.019038  -0.018326
     37       0.346575   0.235745   0.042778   0.174527  -0.213692  -0.211785
     38      -0.162230  -0.111009  -0.022734  -0.084142  -0.448137  -0.440995
     39      -0.340116  -0.266425  -0.019938  -0.104177   0.349815   0.352567
     40       0.118853   0.030942  -0.065545  -0.147662  -0.018011  -0.024423
     41      -0.167219  -0.009066   0.137363   0.326990  -0.039560  -0.035817
                 30         31         32         33         34         35    
      0      -0.017659   0.019880  -0.006394  -0.004292  -0.021319  -0.020019
      1      -0.019957   0.012184   0.002693   0.012137   0.024272   0.027413
      2       0.010517  -0.006808  -0.001193  -0.005757  -0.011348  -0.012903
      3      -0.050394   0.017175   0.014010  -0.011324   0.005407  -0.001942
      4      -0.017597   0.047805   0.041978  -0.040942   0.013579  -0.009036
      5       0.010641  -0.023730  -0.019780   0.019523  -0.006403   0.004426
      6       0.050394   0.017175  -0.014010  -0.011324   0.005407   0.001942
      7       0.017597   0.047805  -0.041978  -0.040942   0.013580   0.009036
      8      -0.010641  -0.023730   0.019780   0.019523  -0.006404  -0.004426
      9       0.017659   0.019880   0.006394  -0.004292  -0.021318   0.020019
     10       0.019957   0.012184  -0.002693   0.012137   0.024271  -0.027414
     11      -0.010518  -0.006808   0.001193  -0.005757  -0.011348   0.012903
     12       0.077920  -0.036885   0.099188   0.082339   0.347663   0.338307
     13      -0.244252   0.147759   0.035411   0.025811   0.111432   0.106537
     14       0.111398  -0.067237  -0.021195  -0.015834  -0.068176  -0.065421
     15       0.157170  -0.106622  -0.009920  -0.016238  -0.039939  -0.042685
     16       0.385547  -0.250430  -0.011087  -0.023913  -0.062905  -0.066461
     17       0.091585  -0.060570   0.069025   0.157257   0.388622   0.414944
     18       0.141494  -0.096978  -0.013748  -0.025659  -0.062263  -0.066666
     19       0.164913  -0.106032  -0.058280  -0.135684  -0.333901  -0.356674
     20      -0.368575   0.240354  -0.032596  -0.077579  -0.186687  -0.200198
     21       0.103115  -0.090733  -0.093613   0.087723  -0.033304   0.018103
     22       0.021959  -0.141869  -0.423067   0.405071  -0.141690   0.082333
     23      -0.124757   0.357624  -0.238647   0.227379  -0.080594   0.045256
     24       0.110227  -0.110310  -0.061793   0.057902  -0.022562   0.012396
     25       0.107497  -0.364231  -0.073256   0.071951  -0.023956   0.015706
     26       0.053758  -0.106285   0.471742  -0.455255   0.158362  -0.093704
     27      -0.103116  -0.090733   0.093613   0.087723  -0.033305  -0.018103
     28      -0.021959  -0.141869   0.423066   0.405072  -0.141691  -0.082333
     29       0.124757   0.357624   0.238646   0.227379  -0.080594  -0.045256
     30      -0.110227  -0.110310   0.061793   0.057903  -0.022562  -0.012396
     31      -0.107498  -0.364231   0.073256   0.071951  -0.023956  -0.015706
     32      -0.053758  -0.106284  -0.471740  -0.455257   0.158363   0.093704
     33      -0.157171  -0.106621   0.009920  -0.016238  -0.039939   0.042685
     34      -0.385547  -0.250430   0.011087  -0.023912  -0.062904   0.066461
     35      -0.091585  -0.060570  -0.069025   0.157256   0.388620  -0.414946
     36      -0.077920  -0.036885  -0.099188   0.082338   0.347662  -0.338308
     37       0.244252   0.147759  -0.035411   0.025810   0.111431  -0.106537
     38      -0.111398  -0.067236   0.021195  -0.015834  -0.068176   0.065422
     39      -0.141494  -0.096978   0.013748  -0.025659  -0.062262   0.066666
     40      -0.164913  -0.106032   0.058281  -0.135683  -0.333899   0.356676
     41       0.368576   0.240354   0.032596  -0.077578  -0.186686   0.200199
                 36         37         38         39         40         41    
      0      -0.000199  -0.000469  -0.000231   0.000284  -0.051669  -0.051328
      1      -0.004391  -0.008053  -0.027015  -0.025750  -0.036996  -0.037392
      2      -0.009045  -0.016747  -0.059300  -0.057563   0.017130   0.016744
      3       0.002215   0.002259  -0.000353  -0.000657  -0.001283  -0.001025
      4       0.027356   0.027231  -0.004583  -0.007969  -0.003310  -0.003814
      5       0.058463   0.057772  -0.010018  -0.017193   0.001246   0.001003
      6      -0.002215   0.002259   0.000353  -0.000657   0.001283  -0.001026
      7      -0.027356   0.027231   0.004583  -0.007969   0.003310  -0.003814
      8      -0.058463   0.057772   0.010018  -0.017193  -0.001246   0.001003
      9       0.000199  -0.000469   0.000231   0.000284   0.051665  -0.051331
     10       0.004391  -0.008053   0.027015  -0.025750   0.036994  -0.037394
     11       0.009045  -0.016747   0.059300  -0.057563  -0.017129   0.016745
     12      -0.002527  -0.003099  -0.024945  -0.029601   0.562782   0.558797
     13      -0.001858  -0.003614  -0.012444  -0.013455   0.168565   0.167601
     14      -0.001660  -0.005078  -0.005907  -0.004155  -0.104975  -0.104434
     15      -0.007733  -0.016766  -0.049088  -0.046491   0.015329   0.014663
     16      -0.014298  -0.023561  -0.088060  -0.086777   0.033889   0.034100
     17       0.076165   0.136272   0.487337   0.476293  -0.239997  -0.239442
     18       0.012801   0.025356   0.076963   0.073041   0.036062   0.036454
     19       0.070375   0.122314   0.422164   0.408199   0.240902   0.247442
     20       0.037094   0.066439   0.225044   0.216693   0.139765   0.142897
     21      -0.093282  -0.093416   0.011460   0.027091   0.004500   0.008992
     22      -0.421565  -0.409695   0.067051   0.118940   0.027767   0.036332
     23      -0.220403  -0.216616   0.035746   0.063275   0.014062   0.019121
     24       0.066287   0.066591  -0.007200  -0.019603   0.002240   0.004918
     25       0.091115   0.086037  -0.014388  -0.025127   0.005383   0.005517
     26      -0.485249  -0.469853   0.078757   0.138664  -0.025683  -0.029601
     27       0.093282  -0.093416  -0.011460   0.027091  -0.004499   0.008992
     28       0.421564  -0.409696  -0.067051   0.118940  -0.027764   0.036334
     29       0.220402  -0.216616  -0.035746   0.063275  -0.014060   0.019122
     30      -0.066287   0.066591   0.007200  -0.019603  -0.002240   0.004918
     31      -0.091115   0.086037   0.014388  -0.025127  -0.005383   0.005517
     32       0.485248  -0.469853  -0.078757   0.138664   0.025681  -0.029603
     33       0.007733  -0.016766   0.049089  -0.046491  -0.015328   0.014664
     34       0.014298  -0.023561   0.088060  -0.086776  -0.033886   0.034103
     35      -0.076165   0.136272  -0.487339   0.476290   0.239981  -0.239460
     36       0.002527  -0.003099   0.024945  -0.029599  -0.562741   0.558838
     37       0.001858  -0.003614   0.012444  -0.013454  -0.168553   0.167613
     38       0.001660  -0.005078   0.005907  -0.004155   0.104968  -0.104442
     39      -0.012801   0.025356  -0.076963   0.073041  -0.036059   0.036456
     40      -0.070375   0.122315  -0.422166   0.408198  -0.240882   0.247459
     41      -0.037094   0.066439  -0.225044   0.216692  -0.139753   0.142906


-----------
IR SPECTRUM
-----------

 Mode    freq (cm**-1)   T**2         TX         TY         TZ
-------------------------------------------------------------------
   6:       124.96    0.000303  ( -0.012958   0.000465  -0.011599)
   7:       231.05    0.002294  (  0.015897   0.029716   0.034029)
   8:       258.15    0.071563  ( -0.100661  -0.225227   0.103455)
   9:       270.55    0.000000  (  0.000001   0.000002  -0.000001)
  10:       429.40    0.000000  (  0.000000   0.000000   0.000000)
  11:       738.82    5.045243  (  0.094050   0.986821   2.015585)
  12:       807.07    0.000000  (  0.000001  -0.000001   0.000001)
  13:       856.94    0.000000  (  0.000000   0.000000  -0.000000)
  14:       954.38    1.791054  (  0.042980   0.585443   1.202690)
  15:       975.53    7.370653  ( -2.458539  -1.001090   0.569259)
  16:      1050.69    0.079047  (  0.026991  -0.248723   0.128279)
  17:      1097.63    0.000000  (  0.000000   0.000000  -0.000000)
  18:      1170.17    0.000000  ( -0.000000  -0.000000   0.000000)
  19:      1195.54    0.000000  (  0.000000   0.000001  -0.000000)
  20:      1275.93    0.011719  ( -0.008360   0.047269   0.097028)
  21:      1304.68    3.036088  ( -1.698799   0.371726  -0.109503)
  22:      1319.75    0.000000  (  0.000002   0.000001  -0.000001)
  23:      1383.88    0.000000  (  0.000001  -0.000001   0.000000)
  24:      1398.35    5.387489  ( -1.401616   1.682453  -0.769620)
  25:      1411.35    0.000000  (  0.000000  -0.000001  -0.000001)
  26:      1461.24    0.000000  ( -0.000003  -0.000002  -0.000003)
  27:      1463.50    2.381731  ( -1.510208  -0.273089   0.162557)
  28:      1467.83    0.000000  ( -0.000000  -0.000004  -0.000000)
  29:      1469.50   15.850585  ( -0.177993  -1.719755  -3.586272)
  30:      1478.45    0.000000  ( -0.000001  -0.000002  -0.000000)
  31:      1482.80    8.866442  ( -1.834273  -2.067075   1.108641)
  32:      3038.57    0.000000  (  0.000002   0.000011  -0.000004)
  33:      3045.30   36.720546  ( -2.979660  -4.750038   2.297675)
  34:      3047.81   73.723301  ( -3.810260   6.991038  -3.214126)
  35:      3048.93    0.000000  (  0.000009  -0.000012   0.000008)
  36:      3076.25    0.000000  (  0.000001  -0.000002   0.000004)
  37:      3097.22   26.953401  (  0.208067   2.176797   4.708680)
  38:      3137.87    0.000000  (  0.000004   0.000014   0.000010)
  39:      3139.48   69.868468  ( -0.014452  -3.465859  -7.606318)
  40:      3143.77    0.000000  ( -0.000205  -0.000154   0.000044)
  41:      3144.36   49.434990  ( -5.593215  -3.920260   1.668083)

The first frequency considered to be a vibration is 6
The total number of vibrations considered is 36


--------------------------
THERMOCHEMISTRY AT 298.15K
--------------------------

Temperature         ... 298.15 K
Pressure            ... 1.00 atm
Total Mass          ... 58.12 AMU

Throughout the following assumptions are being made:
  (1) The electronic state is orbitally nondegenerate
  (2) There are no thermally accessible electronically excited states
  (3) Hindered rotations indicated by low frequency modes are not
      treated as such but are treated as vibrations and this may
      cause some error
  (4) All equations used are the standard statistical mechanics
      equations for an ideal gas
  (5) All vibrations are strictly harmonic

freq.     124.96  E(vib)   ...       0.43 
freq.     231.05  E(vib)   ...       0.32 
freq.     258.15  E(vib)   ...       0.30 
freq.     270.55  E(vib)   ...       0.29 
freq.     429.40  E(vib)   ...       0.18 
freq.     738.82  E(vib)   ...       0.06 
freq.     807.07  E(vib)   ...       0.05 
freq.     856.94  E(vib)   ...       0.04 
freq.     954.38  E(vib)   ...       0.03 
freq.     975.53  E(vib)   ...       0.03 
freq.    1050.69  E(vib)   ...       0.02 
freq.    1097.63  E(vib)   ...       0.02 
freq.    1170.17  E(vib)   ...       0.01 
freq.    1195.54  E(vib)   ...       0.01 
freq.    1275.93  E(vib)   ...       0.01 
freq.    1304.68  E(vib)   ...       0.01 
freq.    1319.75  E(vib)   ...       0.01 
freq.    1383.88  E(vib)   ...       0.00 
freq.    1398.35  E(vib)   ...       0.00 
freq.    1411.35  E(vib)   ...       0.00 
freq.    1461.24  E(vib)   ...       0.00 
freq.    1463.50  E(vib)   ...       0.00 
freq.    1467.83  E(vib)   ...       0.00 
freq.    1469.50  E(vib)   ...       0.00 
freq.    1478.45  E(vib)   ...       0.00 
freq.    1482.80  E(vib)   ...       0.00 
freq.    3038.57  E(vib)   ...       0.00 
freq.    3045.30  E(vib)   ...       0.00 
freq.    3047.81  E(vib)   ...       0.00 
freq.    3048.93  E(vib)   ...       0.00 
freq.    3076.25  E(vib)   ...       0.00 
freq.    3097.22  E(vib)   ...       0.00 
freq.    3137.87  E(vib)   ...       0.00 
freq.    3139.48  E(vib)   ...       0.00 
freq.    3143.77  E(vib)   ...       0.00 
freq.    3144.36  E(vib)   ...       0.00 

------------
INNER ENERGY
------------

The inner energy is: U= E(el) + E(ZPE) + E(vib) + E(rot) + E(trans)
    E(el)   - is the total energy from the electronic structure calculation
              = E(kin-el) + E(nuc-el) + E(el-el) + E(nuc-nuc)
    E(ZPE)  - the the zero temperature vibrational energy from the frequency calculation
    E(vib)  - the the finite temperature correction to E(ZPE) due to population
              of excited vibrational states
    E(rot)  - is the rotational thermal energy
    E(trans)- is the translational thermal energy

Summary of contributions to the inner energy U:
Electronic energy                ...   -158.13947951 Eh
Zero point energy                ...      0.13212846 Eh      82.91 kcal/mol
Thermal vibrational correction   ...      0.00292021 Eh       1.83 kcal/mol
Thermal rotational correction    ...      0.00141627 Eh       0.89 kcal/mol
Thermal translational correction ...      0.00141627 Eh       0.89 kcal/mol
-----------------------------------------------------------------------
Total thermal energy                   -158.00159830 Eh


Summary of corrections to the electronic energy:
(perhaps to be used in another calculation)
Total thermal correction                  0.00575275 Eh       3.61 kcal/mol
Non-thermal (ZPE) correction              0.13212846 Eh      82.91 kcal/mol
-----------------------------------------------------------------------
Total correction                          0.13788121 Eh      86.52 kcal/mol


--------
ENTHALPY
--------

The enthalpy is H = U + kB*T
                kB is Boltzmann's constant
Total free energy                 ...   -158.00159830 Eh 
Thermal Enthalpy correction       ...      0.00094421 Eh       0.59 kcal/mol
-----------------------------------------------------------------------
Total Enthalpy                    ...   -158.00065409 Eh

Error (ORCA_SYM): TSymmetryOperation::SetReflection called with NULL axis!
If your molecule is not C1 symmetric, check warnings below carefully ...
Error (ORCA_SYM): TSymmetryOperation::SetReflection called with NULL axis!
If your molecule is not C1 symmetric, check warnings below carefully ...
Error (ORCA_SYM): TSymmetryOperation::SetReflection called with NULL axis!
If your molecule is not C1 symmetric, check warnings below carefully ...
Error (ORCA_SYM): TSymmetryOperation::SetReflection called with NULL axis!
If your molecule is not C1 symmetric, check warnings below carefully ...
Error (ORCA_SYM): TSymmetryOperation::SetReflection called with NULL axis!
If your molecule is not C1 symmetric, check warnings below carefully ...

Note: Only C1 symmetry has been detected, increase convergence thresholds 
      if your molecule has a higher symmetry. Symmetry factor of 1.0 is   
      used for the rotational entropy correction. 
 

Note: Rotational entropy computed according to Herzberg 
Infrared and Raman Spectra, Chapter V,1, Van Nostrand Reinhold, 1945 
Point Group:  C1, Symmetry Number:   1  
Rotational constants in cm-1:     0.783757     0.121006     0.113726 

Vibrational entropy computed according to the QRRHO of S. Grimme
Chem.Eur.J. 2012 18 9955


-------
ENTROPY
-------

The entropy contributions are T*S = T*(S(el)+S(vib)+S(rot)+S(trans))
     S(el)   - electronic entropy
     S(vib)  - vibrational entropy
     S(rot)  - rotational entropy
     S(trans)- translational entropy
The entropies will be listed as mutliplied by the temperature to get
units of energy

Electronic entropy                ...      0.00000000 Eh      0.00 kcal/mol
Vibrational entropy               ...      0.00485418 Eh      3.05 kcal/mol
Rotational entropy                ...      0.01164916 Eh      7.31 kcal/mol
Translational entropy             ...      0.01810279 Eh     11.36 kcal/mol
-----------------------------------------------------------------------
Final entropy term                ...      0.03460613 Eh     21.72 kcal/mol

In case the symmetry of your molecule has not been determined correctly
or in case you have a reason to use a different symmetry number we print 
out the resulting rotational entropy values for sn=1,12 :
 --------------------------------------------------------
|  sn= 1 | S(rot)=       0.01164916 Eh      7.31 kcal/mol|
|  sn= 2 | S(rot)=       0.01099471 Eh      6.90 kcal/mol|
|  sn= 3 | S(rot)=       0.01061187 Eh      6.66 kcal/mol|
|  sn= 4 | S(rot)=       0.01034025 Eh      6.49 kcal/mol|
|  sn= 5 | S(rot)=       0.01012956 Eh      6.36 kcal/mol|
|  sn= 6 | S(rot)=       0.00995742 Eh      6.25 kcal/mol|
|  sn= 7 | S(rot)=       0.00981187 Eh      6.16 kcal/mol|
|  sn= 8 | S(rot)=       0.00968579 Eh      6.08 kcal/mol|
|  sn= 9 | S(rot)=       0.00957459 Eh      6.01 kcal/mol|
|  sn=10 | S(rot)=       0.00947511 Eh      5.95 kcal/mol|
|  sn=11 | S(rot)=       0.00938512 Eh      5.89 kcal/mol|
|  sn=12 | S(rot)=       0.00930296 Eh      5.84 kcal/mol|
 --------------------------------------------------------


-------------------
GIBBS FREE ENERGY
-------------------

The Gibbs free energy is G = H - T*S

Total enthalpy                    ...   -158.00065409 Eh 
Total entropy correction          ...     -0.03460613 Eh    -21.72 kcal/mol
-----------------------------------------------------------------------
Final Gibbs free energy         ...   -158.03526022 Eh

For completeness - the Gibbs free energy minus the electronic energy
G-E(el)                           ...      0.10421929 Eh     65.40 kcal/mol


Timings for individual modules:

Sum of individual times         ...      681.616 sec (=  11.360 min)
GTO integral calculation        ...        4.150 sec (=   0.069 min)   0.6 %
SCF iterations                  ...       83.123 sec (=   1.385 min)  12.2 %
SCF Gradient evaluation         ...       52.343 sec (=   0.872 min)   7.7 %
Geometry relaxation             ...        1.763 sec (=   0.029 min)   0.3 %
Analytical frequency calculation...      540.237 sec (=   9.004 min)  79.3 %
                             ****ORCA TERMINATED NORMALLY****
TOTAL RUN TIME: 0 days 0 hours 11 minutes 24 seconds 524 msec
