
                                 *****************
                                 * O   R   C   A *
                                 *****************

           --- An Ab Initio, DFT and Semiempirical electronic structure package ---

                  #######################################################
                  #                        -***-                        #
                  #          Department of theory and spectroscopy      #
                  #               Directorship: Frank Neese             #
                  #        Max Planck Institute fuer Kohlenforschung    #
                  #                Kaiser Wilhelm Platz 1               #
                  #                 D-45470 Muelheim/Ruhr               #
                  #                      Germany                        #
                  #                                                     #
                  #                  All rights reserved                #
                  #                        -***-                        #
                  #######################################################


                         Program Version 4.2.1 -  RELEASE  -


 With contributions from (in alphabetic order):
   Daniel Aravena         : Magnetic Suceptibility
   Michael Atanasov       : Ab Initio Ligand Field Theory (pilot matlab implementation)
   Alexander A. Auer      : GIAO ZORA, VPT2
   Ute Becker             : Parallelization
   Giovanni Bistoni       : ED, misc. LED, open-shell LED, HFLD
   Martin Brehm           : Molecular dynamics
   Dmytro Bykov           : SCF Hessian
   Vijay G. Chilkuri      : MRCI spin determinant printing, contributions to CSF-ICE
   Dipayan Datta          : RHF DLPNO-CCSD density
   Achintya Kumar Dutta   : EOM-CC, STEOM-CC
   Dmitry Ganyushin       : Spin-Orbit,Spin-Spin,Magnetic field MRCI
   Miquel Garcia          : C-PCM Hessian, Gaussian charge scheme
   Yang Guo               : DLPNO-NEVPT2, CIM, IAO-localization
   Andreas Hansen         : Spin unrestricted coupled pair/coupled cluster methods
   Benjamin Helmich-Paris : CASSCF linear response (MC-RPA)
   Lee Huntington         : MR-EOM, pCC
   Robert Izsak           : Overlap fitted RIJCOSX, COSX-SCS-MP3, EOM
   Christian Kollmar      : KDIIS, OOCD, Brueckner-CCSD(T), CCSD density
   Simone Kossmann        : Meta GGA functionals, TD-DFT gradient, OOMP2, MP2 Hessian
   Martin Krupicka        : AUTO-CI
   Lucas Lang             : DCDCAS
   Dagmar Lenk            : GEPOL surface, SMD
   Dimitrios Liakos       : Extrapolation schemes; Compound Job, initial MDCI parallelization
   Dimitrios Manganas     : Further ROCIS development; embedding schemes
   Dimitrios Pantazis     : SARC Basis sets
   Taras Petrenko         : DFT Hessian,TD-DFT gradient, ASA, ECA, R-Raman, ABS, FL, XAS/XES, NRVS
   Peter Pinski           : DLPNO-MP2, DLPNO-MP2 Gradient
   Christoph Reimann      : Effective Core Potentials
   Marius Retegan         : Local ZFS, SOC
   Christoph Riplinger    : Optimizer, TS searches, QM/MM, DLPNO-CCSD(T), (RO)-DLPNO pert. Triples
   Tobias Risthaus        : Range-separated hybrids, TD-DFT gradient, RPA, STAB
   Michael Roemelt        : Original ROCIS implementation
   Masaaki Saitow         : Open-shell DLPNO-CCSD energy and density
   Barbara Sandhoefer     : DKH picture change effects
   Avijit Sen             : IP-ROCIS
   Kantharuban Sivalingam : CASSCF convergence, NEVPT2, FIC-MRCI
   Bernardo de Souza      : ESD, SOC TD-DFT
   Georgi Stoychev        : AutoAux, RI-MP2 NMR
   Willem Van den Heuvel  : Paramagnetic NMR
   Boris Wezisla          : Elementary symmetry handling
   Frank Wennmohs         : Technical directorship


 We gratefully acknowledge several colleagues who have allowed us to
 interface, adapt or use parts of their codes:
   Stefan Grimme, W. Hujo, H. Kruse,             : VdW corrections, initial TS optimization,
                  C. Bannwarth                     DFT functionals, gCP, sTDA/sTD-DF
   Ed Valeev, F. Pavosevic, A. Kumar             : LibInt (2-el integral package), F12 methods
   Garnet Chan, S. Sharma, J. Yang, R. Olivares  : DMRG
   Ulf Ekstrom                                   : XCFun DFT Library
   Mihaly Kallay                                 : mrcc  (arbitrary order and MRCC methods)
   Andreas Klamt, Michael Diedenhofen            : otool_cosmo (COSMO solvation model)
   Jiri Pittner, Ondrej Demel                    : Mk-CCSD
   Frank Weinhold                                : gennbo (NPA and NBO analysis)
   Christopher J. Cramer and Donald G. Truhlar   : smd solvation model
   Lars Goerigk                                  : TD-DFT with DH, B97 family of functionals
   V. Asgeirsson, H. Jonsson                     : NEB implementation
   FAccTs GmbH                                   : IRC, NEB, NEB-TS, Multilevel, MM, QM/MM, CI optimization
   S Lehtola, MJT Oliveira, MAL Marques          : LibXC Library


 Your calculation uses the libint2 library for the computation of 2-el integrals
 For citations please refer to: http://libint.valeyev.net

 Your ORCA version has been built with support for libXC version: 4.2.3
 For citations please refer to: https://tddft.org/programs/libxc/

 This ORCA versions uses:
   CBLAS   interface :  Fast vector & matrix operations
   LAPACKE interface :  Fast linear algebra routines




***************************************
The coordinates will be read from file: propyl.xyz
***************************************


----- Orbital basis set information -----
Your calculation utilizes the basis: def2-SVP
   F. Weigend and R. Ahlrichs, Phys. Chem. Chem. Phys. 7, 3297 (2005).

================================================================================
                                        WARNINGS
                       Please study these warnings very carefully!
================================================================================


WARNING: your system is open-shell and RHF/RKS was chosen
  ===> : WILL SWITCH to UHF/UKS


WARNING: Geometry Optimization
  ===> : Switching off AutoStart
         For restart on a previous wavefunction, please use MOREAD

INFO   : the flag for use of LIBINT has been found!

================================================================================
                                       INPUT FILE
================================================================================
NAME = propyl.inp
|  1> ! PBE0
|  2> ! opt anfreq
|  3> * xyzfile 0 2 propyl.xyz **                         ****END OF INPUT****
================================================================================

                       *****************************
                       * Geometry Optimization Run *
                       *****************************

Geometry optimization settings:
Update method            Update   .... BFGS
Choice of coordinates    CoordSys .... Z-matrix Internals
Initial Hessian          InHess   .... Almoef's Model

Convergence Tolerances:
Energy Change            TolE     ....  5.0000e-06 Eh
Max. Gradient            TolMAXG  ....  3.0000e-04 Eh/bohr
RMS Gradient             TolRMSG  ....  1.0000e-04 Eh/bohr
Max. Displacement        TolMAXD  ....  4.0000e-03 bohr
RMS Displacement         TolRMSD  ....  2.0000e-03 bohr
Strict Convergence                ....  False
------------------------------------------------------------------------------
                        ORCA OPTIMIZATION COORDINATE SETUP
------------------------------------------------------------------------------

The optimization will be done in new redundant internal coordinates
Making redundant internal coordinates   ...  (new redundants) done
Evaluating the initial hessian          ...  (Almloef) done
Evaluating the coordinates              ...  done
Calculating the B-matrix                .... done
Calculating the G-matrix                .... done
Diagonalizing the G-matrix              .... done
The first mode is                       ....   15
The number of degrees of freedom        ....   24

    -----------------------------------------------------------------
                    Redundant Internal Coordinates


    -----------------------------------------------------------------
         Definition                    Initial Value    Approx d2E/dq
    -----------------------------------------------------------------
      1. B(C   1,C   0)                  1.5204         0.386917   
      2. B(C   2,C   1)                  1.5238         0.382243   
      3. B(H   3,C   0)                  1.1011         0.345746   
      4. B(H   4,C   0)                  1.1022         0.344351   
      5. B(H   5,C   0)                  1.1020         0.344585   
      6. B(H   6,C   1)                  1.1048         0.341002   
      7. B(H   7,C   1)                  1.1047         0.341115   
      8. B(H   8,C   2)                  1.1048         0.341013   
      9. B(H   9,C   2)                  1.1047         0.341115   
     10. A(C   1,C   0,H   5)          111.3177         0.323843   
     11. A(H   3,C   0,H   4)          107.5253         0.286976   
     12. A(H   3,C   0,H   5)          107.4628         0.287006   
     13. A(C   1,C   0,H   4)          111.3087         0.323806   
     14. A(H   4,C   0,H   5)          107.2889         0.286825   
     15. A(C   1,C   0,H   3)          111.7121         0.324022   
     16. A(C   0,C   1,C   2)          113.6280         0.366979   
     17. A(H   6,C   1,H   7)          105.5243         0.285936   
     18. A(C   2,C   1,H   7)          109.0741         0.322662   
     19. A(C   0,C   1,H   7)          109.6208         0.323305   
     20. A(C   2,C   1,H   6)          109.0747         0.322644   
     21. A(C   0,C   1,H   6)          109.5997         0.323288   
     22. A(H   8,C   2,H   9)          105.5246         0.285938   
     23. A(C   1,C   2,H   9)          109.0741         0.322662   
     24. A(C   1,C   2,H   8)          109.0747         0.322646   
     25. D(H   7,C   1,C   0,H   3)    -57.6708         0.011910   
     26. D(C   2,C   1,C   0,H   4)     59.7963         0.011910   
     27. D(H   6,C   1,C   0,H   3)     57.7055         0.011910   
     28. D(C   2,C   1,C   0,H   3)   -179.9901         0.011910   
     29. D(C   2,C   1,C   0,H   5)    -59.8500         0.011910   
     30. D(H   6,C   1,C   0,H   5)    177.8456         0.011910   
     31. D(H   7,C   1,C   0,H   4)   -177.8844         0.011910   
     32. D(H   7,C   1,C   0,H   5)     62.4693         0.011910   
     33. D(H   6,C   1,C   0,H   4)    -62.5081         0.011910   
     34. D(H   9,C   2,C   1,H   6)     65.2151         0.010895   
     35. D(H   9,C   2,C   1,C   0)    -57.3791         0.010895   
     36. D(H   8,C   2,C   1,H   7)    -65.2148         0.010895   
     37. D(H   8,C   2,C   1,H   6)   -179.9997         0.010895   
     38. D(H   9,C   2,C   1,H   7)    180.0000         0.010895   
     39. D(H   8,C   2,C   1,C   0)     57.4061         0.010895   
    -----------------------------------------------------------------

Number of atoms                         .... 10
Number of degrees of freedom            .... 39

         *************************************************************
         *                GEOMETRY OPTIMIZATION CYCLE   1            *
         *************************************************************
---------------------------------
CARTESIAN COORDINATES (ANGSTROEM)
---------------------------------
  C     -2.280520    0.965780   -0.374420
  C     -1.289180   -0.088800    0.091270
  C      0.166210    0.291520   -0.151690
  H     -3.320780    0.659300   -0.183920
  H     -2.183540    1.156990   -1.455540
  H     -2.118160    1.924760    0.143630
  H     -1.501560   -1.046900   -0.416270
  H     -1.435850   -0.285890    1.168350
  H      0.378590    1.249610    0.355850
  H      0.312880    0.488610   -1.228770

----------------------------
CARTESIAN COORDINATES (A.U.)
----------------------------
  NO LB      ZA    FRAG     MASS         X           Y           Z
   0 C     6.0000    0    12.011   -4.309558    1.825060   -0.707551
   1 C     6.0000    0    12.011   -2.436197   -0.167808    0.172475
   2 C     6.0000    0    12.011    0.314091    0.550893   -0.286653
   3 H     1.0000    0     1.008   -6.275365    1.245896   -0.347558
   4 H     1.0000    0     1.008   -4.126293    2.186394   -2.750572
   5 H     1.0000    0     1.008   -4.002742    3.637269    0.271421
   6 H     1.0000    0     1.008   -2.837537   -1.978354   -0.786636
   7 H     1.0000    0     1.008   -2.713363   -0.540254    2.207862
   8 H     1.0000    0     1.008    0.715431    2.361421    0.672459
   9 H     1.0000    0     1.008    0.591258    0.923339   -2.322039

--------------------------------
INTERNAL COORDINATES (ANGSTROEM)
--------------------------------
 C      0   0   0     0.000000000000     0.00000000     0.00000000
 C      1   0   0     1.520447680159     0.00000000     0.00000000
 C      2   1   0     1.523756186567   113.62804757     0.00000000
 H      1   2   3     1.101072707863   111.71208267   180.00991262
 H      1   2   3     1.102173688173   111.30871151    59.79632399
 H      1   2   3     1.101988753346   111.31773320   300.15004422
 H      2   1   3     1.104833800171   109.59965149   237.69559673
 H      2   1   3     1.104743356350   109.62075677   122.31930501
 H      3   2   1     1.104825128290   109.07473471    57.40614670
 H      3   2   1     1.104743356350   109.07411520   302.62093807

---------------------------
INTERNAL COORDINATES (A.U.)
---------------------------
 C      0   0   0     0.000000000000     0.00000000     0.00000000
 C      1   0   0     2.873229716456     0.00000000     0.00000000
 C      2   1   0     2.879481887479   113.62804757     0.00000000
 H      1   2   3     2.080725871395   111.71208267   180.00991262
 H      1   2   3     2.082806422660   111.30871151    59.79632399
 H      1   2   3     2.082456946484   111.31773320   300.15004422
 H      2   1   3     2.087833305822   109.59965149   237.69559673
 H      2   1   3     2.087662391771   109.62075677   122.31930501
 H      3   2   1     2.087816918342   109.07473471    57.40614670
 H      3   2   1     2.087662391771   109.07411520   302.62093807

---------------------
BASIS SET INFORMATION
---------------------
There are 2 groups of distinct atoms

 Group   1 Type C   : 7s4p1d contracted to 3s2p1d pattern {511/31/1}
 Group   2 Type H   : 4s1p contracted to 2s1p pattern {31/1}

Atom   0C    basis set group =>   1
Atom   1C    basis set group =>   1
Atom   2C    basis set group =>   1
Atom   3H    basis set group =>   2
Atom   4H    basis set group =>   2
Atom   5H    basis set group =>   2
Atom   6H    basis set group =>   2
Atom   7H    basis set group =>   2
Atom   8H    basis set group =>   2
Atom   9H    basis set group =>   2
------------------------------------------------------------------------------
                           ORCA GTO INTEGRAL CALCULATION
------------------------------------------------------------------------------

                         BASIS SET STATISTICS AND STARTUP INFO

 # of primitive gaussian shells          ...   71
 # of primitive gaussian functions       ...  121
 # of contracted shells                  ...   39
 # of contracted basis functions         ...   77
 Highest angular momentum                ...    2
 Maximum contraction depth               ...    5
 Integral package used                   ... LIBINT
 Integral threshhold            Thresh   ...  2.500e-11
 Primitive cut-off              TCut     ...  2.500e-12


------------------------------ INTEGRAL EVALUATION ----------------------------


 * One electron integrals 
 Pre-screening matrix                    ... done
 Shell pair data                         ... done (   0.001 sec)

Timings:
 Total evaluation time               ...     0.003 sec (   0.000 min)
 One electron matrix time            ...     0.016 sec (   0.000 min) =533.3%
 Schwartz matrix evaluation time     ...     0.246 sec (   0.004 min) =8200.0%

-------------------------------------------------------------------------------
                                 ORCA SCF
-------------------------------------------------------------------------------

------------
SCF SETTINGS
------------
Hamiltonian:
 Density Functional     Method          .... DFT(GTOs)
 Exchange Functional    Exchange        .... PBE
   PBE kappa parameter   XKappa         ....  0.804000
   PBE mue parameter    XMuePBE         ....  0.219520
 Correlation Functional Correlation     .... PBE
   PBE beta parameter  CBetaPBE         ....  0.066725
 LDA part of GGA corr.  LDAOpt          .... PW91-LDA
 Gradients option       PostSCFGGA      .... off
 Hybrid DFT is turned on
   Fraction HF Exchange ScalHFX         ....  0.250000
   Scaling of DF-GGA-X  ScalDFX         ....  0.750000
   Scaling of DF-GGA-C  ScalDFC         ....  1.000000
   Scaling of DF-LDA-C  ScalLDAC        ....  1.000000
   Perturbative correction              ....  0.000000
   Density functional embedding theory  .... OFF
   NL short-range parameter             ....  6.900000


General Settings:
 Integral files         IntName         .... propyl
 Hartree-Fock type      HFTyp           .... UHF
 Total Charge           Charge          ....    0
 Multiplicity           Mult            ....    2
 Number of Electrons    NEL             ....   25
 Basis Dimension        Dim             ....   77
 Nuclear Repulsion      ENuc            ....     75.7721953516 Eh

Convergence Acceleration:
 DIIS                   CNVDIIS         .... on
   Start iteration      DIISMaxIt       ....    12
   Startup error        DIISStart       ....  0.200000
   # of expansion vecs  DIISMaxEq       ....     5
   Bias factor          DIISBfac        ....   1.050
   Max. coefficient     DIISMaxC        ....  10.000
 Newton-Raphson         CNVNR           .... off
 SOSCF                  CNVSOSCF        .... off
 Level Shifting         CNVShift        .... on
   Level shift para.    LevelShift      ....    0.2500
   Turn off err/grad.   ShiftErr        ....    0.0010
 Zerner damping         CNVZerner       .... off
 Static damping         CNVDamp         .... on
   Fraction old density DampFac         ....    0.7000
   Max. Damping (<1)    DampMax         ....    0.9800
   Min. Damping (>=0)   DampMin         ....    0.0000
   Turn off err/grad.   DampErr         ....    0.1000
 Fernandez-Rico         CNVRico         .... off

SCF Procedure:
 Maximum # iterations   MaxIter         ....   125
 SCF integral mode      SCFMode         .... Direct
   Integral package                     .... LIBINT
 Reset frequency        DirectResetFreq ....    20
 Integral Threshold     Thresh          ....  2.500e-11 Eh
 Primitive CutOff       TCut            ....  2.500e-12 Eh

Convergence Tolerance:
 Convergence Check Mode ConvCheckMode   .... Total+1el-Energy
 Convergence forced     ConvForced      .... 0
 Energy Change          TolE            ....  1.000e-08 Eh
 1-El. energy change                    ....  1.000e-05 Eh
 DIIS Error             TolErr          ....  5.000e-07


Diagonalization of the overlap matrix:
Smallest eigenvalue                        ... 3.254e-03
Time for diagonalization                   ...    0.005 sec
Threshold for overlap eigenvalues          ... 1.000e-08
Number of eigenvalues below threshold      ... 0
Time for construction of square roots      ...    0.005 sec
Total time needed                          ...    0.010 sec

-------------------
DFT GRID GENERATION
-------------------

General Integration Accuracy     IntAcc      ...  4.340
Radial Grid Type                 RadialGrid  ... Gauss-Chebyshev
Angular Grid (max. acc.)         AngularGrid ... Lebedev-110
Angular grid pruning method      GridPruning ... 3 (G Style)
Weight generation scheme         WeightScheme... Becke
Basis function cutoff            BFCut       ...    1.0000e-11
Integration weight cutoff        WCut        ...    1.0000e-14
Grids for H and He will be reduced by one unit

# of grid points (after initial pruning)     ...  10526 (   0.0 sec)
# of grid points (after weights+screening)   ...  10026 (   0.1 sec)
nearest neighbour list constructed           ...    0.0 sec
Grid point re-assignment to atoms done       ...    0.0 sec
Grid point division into batches done        ...    0.0 sec
Reduced shell lists constructed in    0.1 sec

Total number of grid points                  ...    10026
Total number of batches                      ...      162
Average number of points per batch           ...       61
Average number of grid points per atom       ...     1003
Average number of shells per batch           ...    34.09 (87.40%)
Average number of basis functions per batch  ...    67.04 (87.07%)
Average number of large shells per batch     ...    29.64 (86.95%)
Average number of large basis fcns per batch ...    57.15 (85.24%)
Maximum spatial batch extension              ...  24.31, 18.89, 21.59 au
Average spatial batch extension              ...   4.70,  4.13,  4.24 au

Time for grid setup =    0.257 sec

------------------------------
INITIAL GUESS: MODEL POTENTIAL
------------------------------
Loading Hartree-Fock densities                     ... done
Calculating cut-offs                               ... done
Setting up the integral package                    ... done
Initializing the effective Hamiltonian             ... done
Starting the Coulomb interaction                   ... done (   0.0 sec)
Reading the grid                                   ... done
Mapping shells                                     ... done
Starting the XC term evaluation                    ... done (   0.1 sec)
  promolecular density results
     # of electrons  =     24.990121724
     EX              =    -17.336623552
     EC              =     -0.780350261
     EX+EC           =    -18.116973813
Transforming the Hamiltonian                       ... done (   0.0 sec)
Diagonalizing the Hamiltonian                      ... done (   0.0 sec)
Back transforming the eigenvectors                 ... done (   0.0 sec)
Now organizing SCF variables                       ... done
                      ------------------
                      INITIAL GUESS DONE (   0.8 sec)
                      ------------------
--------------
SCF ITERATIONS
--------------
ITER       Energy         Delta-E        Max-DP      RMS-DP      [F,P]     Damp
               ***  Starting incremental Fock matrix formation  ***
  0   -118.1236740158   0.000000000000 0.03468065  0.00141037  0.1532150 0.7000
  1   -118.1659938531  -0.042319837308 0.02147697  0.00103396  0.0821518 0.7000
                               ***Turning on DIIS***
  2   -118.1846149540  -0.018621100880 0.03131736  0.00184945  0.0330447 0.0000
  3   -118.2111037257  -0.026488771668 0.01602037  0.00069096  0.0425159 0.0000
  4   -118.2183728328  -0.007269107088 0.00489822  0.00018848  0.0070898 0.0000
  5   -118.2187040293  -0.000331196498 0.00179355  0.00007508  0.0017787 0.0000
  6   -118.2187460418  -0.000042012574 0.00120344  0.00006002  0.0007402 0.0000
  7   -118.2187578573  -0.000011815431 0.00047624  0.00001388  0.0002367 0.0000
  8   -118.2187589372  -0.000001079918 0.00009699  0.00000422  0.0000674 0.0000
  9   -118.2187590434  -0.000000106182 0.00004004  0.00000140  0.0000254 0.0000
 10   -118.2187590595  -0.000000016155 0.00001791  0.00000066  0.0000079 0.0000
 11   -118.2187590638  -0.000000004250 0.00001284  0.00000050  0.0000025 0.0000
                            ***DIIS convergence achieved***

               *****************************************************
               *                     SUCCESS                       *
               *           SCF CONVERGED AFTER  12 CYCLES          *
               *****************************************************

Setting up the final grid:

General Integration Accuracy     IntAcc      ...  4.670
Radial Grid Type                 RadialGrid  ... Gauss-Chebyshev
Angular Grid (max. acc.)         AngularGrid ... Lebedev-302
Angular grid pruning method      GridPruning ... 3 (G Style)
Weight generation scheme         WeightScheme... Becke
Basis function cutoff            BFCut       ...    1.0000e-11
Integration weight cutoff        WCut        ...    1.0000e-14
Grids for H and He will be reduced by one unit

# of grid points (after initial pruning)     ...  42394 (   0.0 sec)
# of grid points (after weights+screening)   ...  39915 (   0.1 sec)
nearest neighbour list constructed           ...    0.0 sec
Grid point re-assignment to atoms done       ...    0.0 sec
Grid point division into batches done        ...    0.3 sec
Reduced shell lists constructed in    0.6 sec

Total number of grid points                  ...    39915
Total number of batches                      ...      628
Average number of points per batch           ...       63
Average number of grid points per atom       ...     3992
Average number of shells per batch           ...    31.79 (81.52%)
Average number of basis functions per batch  ...    62.28 (80.88%)
Average number of large shells per batch     ...    27.00 (84.93%)
Average number of large basis fcns per batch ...    51.41 (82.56%)
Maximum spatial batch extension              ...  21.07, 20.64, 18.20 au
Average spatial batch extension              ...   2.83,  2.84,  2.75 au

Final grid set up in    0.7 sec
Final integration                            ... done (   0.7 sec)
Change in XC energy                          ...    -0.000148108
Integrated number of electrons               ...    25.000086821
Previous integrated no of electrons          ...    24.996613128

----------------
TOTAL SCF ENERGY
----------------

Total Energy       :         -118.21890717 Eh           -3216.90001 eV

Components:
Nuclear Repulsion  :           75.77219535 Eh            2061.86626 eV
Electronic Energy  :         -193.99110252 Eh           -5278.76627 eV
One Electron Energy:         -307.29050106 Eh           -8361.79964 eV
Two Electron Energy:          113.29939853 Eh            3083.03337 eV

Virial components:
Potential Energy   :         -234.97412515 Eh           -6393.97101 eV
Kinetic Energy     :          116.75521798 Eh            3177.07100 eV
Virial Ratio       :            2.01253639


DFT components:
N(Alpha)           :       13.000041721889 electrons
N(Beta)            :       12.000045099187 electrons
N(Total)           :       25.000086821077 electrons
E(X)               :      -13.382157036635 Eh       
E(C)               :       -0.787465049485 Eh       
E(XC)              :      -14.169622086121 Eh       
DFET-embed. en.    :        0.000000000000 Eh       

---------------
SCF CONVERGENCE
---------------

  Last Energy change         ...   -1.3606e-09  Tolerance :   1.0000e-08
  Last MAX-Density change    ...    4.4112e-06  Tolerance :   1.0000e-07
  Last RMS-Density change    ...    1.7194e-07  Tolerance :   5.0000e-09
  Last DIIS Error            ...    9.8027e-07  Tolerance :   5.0000e-07

             **** THE GBW FILE WAS UPDATED (propyl.gbw) ****
             **** DENSITY FILE WAS UPDATED (propyl.scfp) ****
             **** ENERGY FILE WAS UPDATED (propyl.en.tmp) ****
----------------------
UHF SPIN CONTAMINATION
----------------------

Warning: in a DFT calculation there is little theoretical justification to 
         calculate <S**2> as in Hartree-Fock theory. We will do it anyways
         but you should keep in mind that the values have only limited relevance

Expectation value of <S**2>     :     0.753239
Ideal value S*(S+1) for S=0.5   :     0.750000
Deviation                       :     0.003239

             **** THE GBW FILE WAS UPDATED (propyl.gbw) ****
             **** DENSITY FILE WAS UPDATED (propyl.scfp) ****
----------------
ORBITAL ENERGIES
----------------
                 SPIN UP ORBITALS
  NO   OCC          E(Eh)            E(eV) 
   0   1.0000     -10.249022      -278.8901 
   1   1.0000     -10.233950      -278.4799 
   2   1.0000     -10.231883      -278.4237 
   3   1.0000      -0.803423       -21.8622 
   4   1.0000      -0.689672       -18.7669 
   5   1.0000      -0.593725       -16.1561 
   6   1.0000      -0.474560       -12.9134 
   7   1.0000      -0.435225       -11.8431 
   8   1.0000      -0.408245       -11.1089 
   9   1.0000      -0.395223       -10.7546 
  10   1.0000      -0.352996        -9.6055 
  11   1.0000      -0.337700        -9.1893 
  12   1.0000      -0.256750        -6.9865 
  13   0.0000       0.071876         1.9558 
  14   0.0000       0.114124         3.1055 
  15   0.0000       0.114251         3.1089 
  16   0.0000       0.126410         3.4398 
  17   0.0000       0.155435         4.2296 
  18   0.0000       0.164654         4.4805 
  19   0.0000       0.174640         4.7522 
  20   0.0000       0.222587         6.0569 
  21   0.0000       0.267154         7.2696 
  22   0.0000       0.432290        11.7632 
  23   0.0000       0.433422        11.7940 
  24   0.0000       0.459967        12.5163 
  25   0.0000       0.460457        12.5297 
  26   0.0000       0.469638        12.7795 
  27   0.0000       0.497463        13.5367 
  28   0.0000       0.626173        17.0390 
  29   0.0000       0.637530        17.3481 
  30   0.0000       0.654132        17.7998 
  31   0.0000       0.662139        18.0177 
  32   0.0000       0.689354        18.7583 
  33   0.0000       0.704612        19.1735 
  34   0.0000       0.707422        19.2499 
  35   0.0000       0.710861        19.3435 
  36   0.0000       0.712329        19.3834 
  37   0.0000       0.721432        19.6312 
  38   0.0000       0.753877        20.5140 
  39   0.0000       0.939652        25.5692 
  40   0.0000       1.022225        27.8162 
  41   0.0000       1.127515        30.6812 
  42   0.0000       1.140035        31.0219 
  43   0.0000       1.331590        36.2344 
  44   0.0000       1.367523        37.2122 
  45   0.0000       1.385835        37.7105 
  46   0.0000       1.542115        41.9631 
  47   0.0000       1.545348        42.0510 
  48   0.0000       1.664843        45.3027 
  49   0.0000       1.689796        45.9817 
  50   0.0000       1.763733        47.9936 
  51   0.0000       1.776804        48.3493 
  52   0.0000       1.777866        48.3782 
  53   0.0000       1.802675        49.0533 
  54   0.0000       1.827195        49.7205 
  55   0.0000       1.847570        50.2749 
  56   0.0000       1.857543        50.5463 
  57   0.0000       1.891144        51.4607 
  58   0.0000       1.920270        52.2532 
  59   0.0000       1.933157        52.6039 
  60   0.0000       2.050055        55.7848 
  61   0.0000       2.122015        57.7430 
  62   0.0000       2.221711        60.4558 
  63   0.0000       2.330489        63.4158 
  64   0.0000       2.388011        64.9811 
  65   0.0000       2.388827        65.0033 
  66   0.0000       2.405255        65.4503 
  67   0.0000       2.542445        69.1834 
  68   0.0000       2.590197        70.4828 
  69   0.0000       2.594380        70.5967 
  70   0.0000       2.724575        74.1395 
  71   0.0000       2.842362        77.3446 
  72   0.0000       2.873246        78.1850 
  73   0.0000       2.931357        79.7663 
  74   0.0000       3.007172        81.8293 
  75   0.0000       3.023933        82.2854 
  76   0.0000       3.088596        84.0450 

                 SPIN DOWN ORBITALS
  NO   OCC          E(Eh)            E(eV) 
   0   1.0000     -10.234359      -278.4911 
   1   1.0000     -10.231917      -278.4246 
   2   1.0000     -10.230487      -278.3857 
   3   1.0000      -0.793518       -21.5927 
   4   1.0000      -0.670276       -18.2391 
   5   1.0000      -0.582261       -15.8441 
   6   1.0000      -0.470536       -12.8039 
   7   1.0000      -0.427374       -11.6294 
   8   1.0000      -0.395165       -10.7530 
   9   1.0000      -0.388292       -10.5660 
  10   1.0000      -0.346543        -9.4299 
  11   1.0000      -0.334447        -9.1008 
  12   0.0000      -0.057074        -1.5531 
  13   0.0000       0.075563         2.0562 
  14   0.0000       0.116767         3.1774 
  15   0.0000       0.117583         3.1996 
  16   0.0000       0.130358         3.5472 
  17   0.0000       0.158792         4.3210 
  18   0.0000       0.167498         4.5578 
  19   0.0000       0.182341         4.9618 
  20   0.0000       0.233276         6.3478 
  21   0.0000       0.276848         7.5334 
  22   0.0000       0.435154        11.8411 
  23   0.0000       0.438029        11.9194 
  24   0.0000       0.467169        12.7123 
  25   0.0000       0.467680        12.7262 
  26   0.0000       0.483052        13.1445 
  27   0.0000       0.571111        15.5407 
  28   0.0000       0.637426        17.3453 
  29   0.0000       0.644118        17.5273 
  30   0.0000       0.660564        17.9749 
  31   0.0000       0.670621        18.2485 
  32   0.0000       0.693454        18.8699 
  33   0.0000       0.709857        19.3162 
  34   0.0000       0.713219        19.4077 
  35   0.0000       0.719479        19.5780 
  36   0.0000       0.719816        19.5872 
  37   0.0000       0.730095        19.8669 
  38   0.0000       0.757512        20.6129 
  39   0.0000       0.948635        25.8137 
  40   0.0000       1.027625        27.9631 
  41   0.0000       1.132795        30.8249 
  42   0.0000       1.149296        31.2739 
  43   0.0000       1.344592        36.5882 
  44   0.0000       1.367929        37.2232 
  45   0.0000       1.392075        37.8803 
  46   0.0000       1.545699        42.0606 
  47   0.0000       1.577425        42.9239 
  48   0.0000       1.669762        45.4365 
  49   0.0000       1.695751        46.1437 
  50   0.0000       1.769483        48.1501 
  51   0.0000       1.777739        48.3747 
  52   0.0000       1.791198        48.7410 
  53   0.0000       1.803289        49.0700 
  54   0.0000       1.831868        49.8477 
  55   0.0000       1.853389        50.4333 
  56   0.0000       1.859401        50.5969 
  57   0.0000       1.896525        51.6071 
  58   0.0000       1.942629        52.8616 
  59   0.0000       1.952380        53.1269 
  60   0.0000       2.055198        55.9248 
  61   0.0000       2.141399        58.2704 
  62   0.0000       2.245046        61.0908 
  63   0.0000       2.354588        64.0716 
  64   0.0000       2.398377        65.2632 
  65   0.0000       2.400735        65.3273 
  66   0.0000       2.406860        65.4940 
  67   0.0000       2.552963        69.4696 
  68   0.0000       2.597307        70.6763 
  69   0.0000       2.598489        70.7085 
  70   0.0000       2.737414        74.4888 
  71   0.0000       2.854134        77.6649 
  72   0.0000       2.881423        78.4075 
  73   0.0000       2.936333        79.9017 
  74   0.0000       3.012340        81.9699 
  75   0.0000       3.032176        82.5097 
  76   0.0000       3.094857        84.2153 

                    ********************************
                    * MULLIKEN POPULATION ANALYSIS *
                    ********************************

--------------------------------------------
MULLIKEN ATOMIC CHARGES AND SPIN POPULATIONS
--------------------------------------------
   0 C :   -0.106091    0.035123
   1 C :   -0.134214   -0.067339
   2 C :   -0.079626    1.067683
   3 H :    0.051154    0.014649
   4 H :    0.046103   -0.000268
   5 H :    0.043575   -0.000318
   6 H :    0.047476    0.007166
   7 H :    0.050040    0.007123
   8 H :    0.040913   -0.031930
   9 H :    0.040669   -0.031890
Sum of atomic charges         :   -0.0000000
Sum of atomic spin populations:    1.0000000

-----------------------------------------------------
MULLIKEN REDUCED ORBITAL CHARGES AND SPIN POPULATIONS
-----------------------------------------------------
CHARGE
  0 C s       :     3.063833  s :     3.063833
      pz      :     1.022926  p :     3.014108
      px      :     0.995940
      py      :     0.995242
      dz2     :     0.007999  d :     0.028150
      dxz     :     0.002092
      dyz     :     0.005353
      dx2y2   :     0.007813
      dxy     :     0.004893
  1 C s       :     3.093606  s :     3.093606
      pz      :     1.038337  p :     3.003244
      px      :     0.955017
      py      :     1.009890
      dz2     :     0.008843  d :     0.037363
      dxz     :     0.005285
      dyz     :     0.005685
      dx2y2   :     0.009736
      dxy     :     0.007814
  2 C s       :     3.213238  s :     3.213238
      pz      :     0.984147  p :     2.841198
      px      :     0.917086
      py      :     0.939965
      dz2     :     0.007287  d :     0.025190
      dxz     :     0.003125
      dyz     :     0.003864
      dx2y2   :     0.007442
      dxy     :     0.003472
  3 H s       :     0.925214  s :     0.925214
      pz      :     0.005268  p :     0.023632
      px      :     0.013141
      py      :     0.005223
  4 H s       :     0.930410  s :     0.930410
      pz      :     0.013996  p :     0.023486
      px      :     0.004581
      py      :     0.004909
  5 H s       :     0.932904  s :     0.932904
      pz      :     0.007033  p :     0.023521
      px      :     0.004717
      py      :     0.011772
  6 H s       :     0.930090  s :     0.930090
      pz      :     0.006732  p :     0.022434
      px      :     0.004205
      py      :     0.011497
  7 H s       :     0.927557  s :     0.927557
      pz      :     0.013710  p :     0.022403
      px      :     0.004037
      py      :     0.004656
  8 H s       :     0.935233  s :     0.935233
      pz      :     0.007348  p :     0.023854
      px      :     0.004752
      py      :     0.011755
  9 H s       :     0.935451  s :     0.935451
      pz      :     0.014063  p :     0.023880
      px      :     0.004561
      py      :     0.005255

SPIN
  0 C s       :     0.003724  s :     0.003724
      pz      :     0.004343  p :     0.031028
      px      :     0.014140
      py      :     0.012545
      dz2     :    -0.000011  d :     0.000371
      dxz     :     0.000068
      dyz     :    -0.000006
      dx2y2   :     0.000158
      dxy     :     0.000162
  1 C s       :    -0.021502  s :    -0.021502
      pz      :    -0.007625  p :    -0.050451
      px      :    -0.028766
      py      :    -0.014059
      dz2     :     0.000338  d :     0.004614
      dxz     :     0.000635
      dyz     :     0.000032
      dx2y2   :     0.000440
      dxy     :     0.003168
  2 C s       :     0.182625  s :     0.182625
      pz      :     0.120420  p :     0.888995
      px      :     0.333812
      py      :     0.434762
      dz2     :    -0.001114  d :    -0.003937
      dxz     :     0.000064
      dyz     :    -0.000713
      dx2y2   :    -0.001500
      dxy     :    -0.000674
  3 H s       :     0.014547  s :     0.014547
      pz      :     0.000042  p :     0.000102
      px      :    -0.000092
      py      :     0.000151
  4 H s       :    -0.000383  s :    -0.000383
      pz      :     0.000057  p :     0.000115
      px      :     0.000021
      py      :     0.000037
  5 H s       :    -0.000435  s :    -0.000435
      pz      :    -0.000003  p :     0.000117
      px      :     0.000016
      py      :     0.000103
  6 H s       :     0.007304  s :     0.007304
      pz      :     0.000037  p :    -0.000137
      px      :    -0.000136
      py      :    -0.000038
  7 H s       :     0.007260  s :     0.007260
      pz      :    -0.000006  p :    -0.000137
      px      :    -0.000135
      py      :     0.000004
  8 H s       :    -0.035374  s :    -0.035374
      pz      :     0.001253  p :     0.003444
      px      :     0.001838
      py      :     0.000354
  9 H s       :    -0.035355  s :    -0.035355
      pz      :     0.000194  p :     0.003465
      px      :     0.001658
      py      :     0.001613


                     *******************************
                     * LOEWDIN POPULATION ANALYSIS *
                     *******************************

-------------------------------------------
LOEWDIN ATOMIC CHARGES AND SPIN POPULATIONS
-------------------------------------------
   0 C :   -0.069456    0.042199
   1 C :   -0.078899   -0.002695
   2 C :   -0.031461    0.934014
   3 H :    0.033130    0.008729
   4 H :    0.028473    0.000274
   5 H :    0.028076    0.000261
   6 H :    0.029224    0.005395
   7 H :    0.029685    0.005386
   8 H :    0.015687    0.003225
   9 H :    0.015541    0.003213

----------------------------------------------------
LOEWDIN REDUCED ORBITAL CHARGES AND SPIN POPULATIONS
----------------------------------------------------
CHARGE
  0 C s       :     2.847453  s :     2.847453
      pz      :     1.066626  p :     3.150352
      px      :     1.037125
      py      :     1.046601
      dz2     :     0.020661  d :     0.071651
      dxz     :     0.004862
      dyz     :     0.013281
      dx2y2   :     0.019199
      dxy     :     0.013648
  1 C s       :     2.848182  s :     2.848182
      pz      :     1.065337  p :     3.139816
      px      :     1.027667
      py      :     1.046812
      dz2     :     0.022669  d :     0.090902
      dxz     :     0.010966
      dyz     :     0.013753
      dx2y2   :     0.023768
      dxy     :     0.019746
  2 C s       :     2.973419  s :     2.973419
      pz      :     1.047537  p :     3.000362
      px      :     0.981128
      py      :     0.971697
      dz2     :     0.017945  d :     0.057680
      dxz     :     0.006467
      dyz     :     0.009129
      dx2y2   :     0.017169
      dxy     :     0.006971
  3 H s       :     0.901032  s :     0.901032
      pz      :     0.013503  p :     0.065839
      px      :     0.037778
      py      :     0.014557
  4 H s       :     0.905989  s :     0.905989
      pz      :     0.039432  p :     0.065538
      px      :     0.012581
      py      :     0.013525
  5 H s       :     0.906357  s :     0.906357
      pz      :     0.018656  p :     0.065567
      px      :     0.012971
      py      :     0.033941
  6 H s       :     0.905557  s :     0.905557
      pz      :     0.018435  p :     0.065219
      px      :     0.013333
      py      :     0.033451
  7 H s       :     0.905074  s :     0.905074
      pz      :     0.038707  p :     0.065241
      px      :     0.012846
      py      :     0.013688
  8 H s       :     0.913479  s :     0.913479
      pz      :     0.018514  p :     0.070833
      px      :     0.014677
      py      :     0.037642
  9 H s       :     0.913640  s :     0.913640
      pz      :     0.041150  p :     0.070818
      px      :     0.014217
      py      :     0.015451

SPIN
  0 C s       :     0.011414  s :     0.011414
      pz      :     0.003063  p :     0.030174
      px      :     0.016640
      py      :     0.010471
      dz2     :     0.000008  d :     0.000610
      dxz     :     0.000075
      dyz     :    -0.000066
      dx2y2   :     0.000467
      dxy     :     0.000126
  1 C s       :    -0.003596  s :    -0.003596
      pz      :    -0.002708  p :    -0.010695
      px      :    -0.003124
      py      :    -0.004862
      dz2     :     0.001069  d :     0.011596
      dxz     :     0.001548
      dyz     :     0.000137
      dx2y2   :     0.001553
      dxy     :     0.007287
  2 C s       :     0.109798  s :     0.109798
      pz      :     0.099369  p :     0.828494
      px      :     0.315519
      py      :     0.413606
      dz2     :    -0.001600  d :    -0.004278
      dxz     :     0.000134
      dyz     :    -0.000918
      dx2y2   :    -0.002022
      dxy     :     0.000128
  3 H s       :     0.007973  s :     0.007973
      pz      :     0.000061  p :     0.000757
      px      :     0.000396
      py      :     0.000300
  4 H s       :    -0.000506  s :    -0.000506
      pz      :     0.000410  p :     0.000780
      px      :     0.000082
      py      :     0.000288
  5 H s       :    -0.000517  s :    -0.000517
      pz      :     0.000026  p :     0.000778
      px      :     0.000061
      py      :     0.000691
  6 H s       :     0.006019  s :     0.006019
      pz      :    -0.000045  p :    -0.000624
      px      :    -0.000429
      py      :    -0.000149
  7 H s       :     0.006011  s :     0.006011
      pz      :    -0.000139  p :    -0.000625
      px      :    -0.000433
      py      :    -0.000053
  8 H s       :    -0.012358  s :    -0.012358
      pz      :     0.003712  p :     0.015583
      px      :     0.006762
      py      :     0.005109
  9 H s       :    -0.012371  s :    -0.012371
      pz      :     0.002222  p :     0.015583
      px      :     0.006403
      py      :     0.006958


                      *****************************
                      * MAYER POPULATION ANALYSIS *
                      *****************************

  NA   - Mulliken gross atomic population
  ZA   - Total nuclear charge
  QA   - Mulliken gross atomic charge
  VA   - Mayer's total valence
  BVA  - Mayer's bonded valence
  FA   - Mayer's free valence

  ATOM       NA         ZA         QA         VA         BVA        FA
  0 C      6.1061     6.0000    -0.1061     3.9905     3.9888     0.0017
  1 C      6.1342     6.0000    -0.1342     4.0455     4.0421     0.0034
  2 C      6.0796     6.0000    -0.0796     3.9063     3.0411     0.8652
  3 H      0.9488     1.0000     0.0512     0.9817     0.9815     0.0002
  4 H      0.9539     1.0000     0.0461     0.9846     0.9846     0.0000
  5 H      0.9564     1.0000     0.0436     0.9847     0.9847     0.0000
  6 H      0.9525     1.0000     0.0475     0.9677     0.9677     0.0001
  7 H      0.9500     1.0000     0.0500     0.9675     0.9675     0.0001
  8 H      0.9591     1.0000     0.0409     0.9811     0.9791     0.0019
  9 H      0.9593     1.0000     0.0407     0.9815     0.9796     0.0019

  Mayer bond orders larger than 0.100000
B(  0-C ,  1-C ) :   1.0639 B(  0-C ,  3-H ) :   0.9677 B(  0-C ,  4-H ) :   0.9736 
B(  0-C ,  5-H ) :   0.9727 B(  1-C ,  2-C ) :   1.0707 B(  1-C ,  6-H ) :   0.9531 
B(  1-C ,  7-H ) :   0.9536 B(  2-C ,  8-H ) :   0.9719 B(  2-C ,  9-H ) :   0.9731 


-------
TIMINGS
-------

Total SCF time: 0 days 0 hours 0 min 15 sec 

Total time                  ....      15.997 sec
Sum of individual times     ....      15.453 sec  ( 96.6%)

Fock matrix formation       ....      13.931 sec  ( 87.1%)
  XC integration            ....       3.434 sec  ( 24.7% of F)
    Basis function eval.    ....       0.710 sec  ( 20.7% of XC)
    Density eval.           ....       0.977 sec  ( 28.5% of XC)
    XC-Functional eval.     ....       0.253 sec  (  7.4% of XC)
    XC-Potential eval.      ....       1.186 sec  ( 34.5% of XC)
Diagonalization             ....       0.048 sec  (  0.3%)
Density matrix formation    ....       0.002 sec  (  0.0%)
Population analysis         ....       0.015 sec  (  0.1%)
Initial guess               ....       0.501 sec  (  3.1%)
Orbital Transformation      ....       0.000 sec  (  0.0%)
Orbital Orthonormalization  ....       0.000 sec  (  0.0%)
DIIS solution               ....       0.020 sec  (  0.1%)
Grid generation             ....       0.936 sec  (  5.9%)

-------------------------   --------------------
FINAL SINGLE POINT ENERGY      -118.218907173068
-------------------------   --------------------

------------------------------------------------------------------------------
                         ORCA SCF GRADIENT CALCULATION
------------------------------------------------------------------------------

Gradient of the Kohn-Sham DFT energy:
Kohn-Sham wavefunction type      ... UKS
Hartree-Fock exchange scaling    ...    0.250
Number of operators              ...    2
Number of atoms                  ...   10
Basis set dimensions             ...   77
Integral neglect threshold       ... 2.5e-11
Integral primitive cutoff        ... 2.5e-12

Nuclear repulsion gradient       ... done
One Electron Gradient            ... done
Pre-screening matrix             ... done
Starting the two electron gradient:
Two electron gradient done
Exchange-correlation gradient    ... done

------------------
CARTESIAN GRADIENT
------------------

   1   C   :   -0.001889410   -0.005171783    0.002549737
   2   C   :   -0.016284730    0.018174857   -0.007991101
   3   C   :    0.040917437   -0.034444218    0.014765886
   4   H   :   -0.000488824    0.001305726   -0.000606811
   5   H   :    0.000212146   -0.000061173   -0.000019158
   6   H   :    0.000207768   -0.000029881    0.000053051
   7   H   :    0.001503078   -0.000660663    0.000060503
   8   H   :    0.001524290   -0.000509090    0.000316188
   9   H   :   -0.013028423    0.008555628   -0.009059389
  10   H   :   -0.012673332    0.012840596   -0.000068906

Difference to translation invariance:
           :    0.0000000000    0.0000000000    0.0000000000

Norm of the cartesian gradient     ...    0.0665820264
RMS gradient                       ...    0.0121561593
MAX gradient                       ...    0.0409174368

-------
TIMINGS
-------

Total SCF gradient time            ...        5.823 sec

One electron gradient       ....       0.032 sec  (  0.5%)
Prescreening matrices       ....       0.033 sec  (  0.6%)
Two electron gradient       ....       1.765 sec  ( 30.3%)
XC gradient                 ....       3.719 sec  ( 63.9%)
------------------------------------------------------------------------------
                         ORCA GEOMETRY RELAXATION STEP
------------------------------------------------------------------------------

Reading the OPT-File                    .... done
Getting information on internals        .... done
Copying old internal coords+grads       .... done
Making the new internal coordinates     .... (new redundants).... done
Validating the new internal coordinates .... (new redundants).... done
Calculating the B-matrix                .... done
Calculating the G,G- and P matrices     .... done
Transforming gradient to internals      .... done
Projecting the internal gradient        .... done
Number of atoms                         ....  10
Number of internal coordinates          ....  39
Current Energy                          ....  -118.218907173 Eh
Current gradient norm                   ....     0.066582026 Eh/bohr
Maximum allowed component of the step   ....  0.300
Current trust radius                    ....  0.300
Evaluating the initial hessian          ....  (Almloef) done
Projecting the Hessian                  .... done
Forming the augmented Hessian           .... done
Diagonalizing the augmented Hessian     .... done
Last element of RFO vector              ....  0.954069291
Lowest eigenvalues of augmented Hessian:
 -0.010983797  0.010894906  0.011910275  0.081254818  0.090460252
Length of the computed step             ....  0.314008670
Warning: the length of the step is outside the trust region - taking restricted step instead
The input lambda is                     ....    -0.010984
   iter:   1  x=   -0.015285  g=    1.999854 f(x)=     0.008601
   iter:   2  x=   -0.015600  g=    1.750709 f(x)=     0.000552
   iter:   3  x=   -0.015602  g=    1.734137 f(x)=     0.000003
   iter:   4  x=   -0.015602  g=    1.734058 f(x)=     0.000000
   iter:   5  x=   -0.015602  g=    1.734058 f(x)=     0.000000
The output lambda is                    ....    -0.015602 (5 iterations)
The final length of the internal step   ....  0.300000000
Converting the step to cartesian space:
 Initial RMS(Int)=    0.0480384461
Transforming coordinates:
 Iter   0:  RMS(Cart)=    0.0471308321 RMS(Int)=    0.0488545193
 Iter   1:  RMS(Cart)=    0.0040003150 RMS(Int)=    0.0035136718
 Iter   2:  RMS(Cart)=    0.0002968941 RMS(Int)=    0.0003330225
 Iter   3:  RMS(Cart)=    0.0000465933 RMS(Int)=    0.0000388313
 Iter   4:  RMS(Cart)=    0.0000033405 RMS(Int)=    0.0000039414
 Iter   5:  RMS(Cart)=    0.0000005256 RMS(Int)=    0.0000004260
 Iter   6:  RMS(Cart)=    0.0000000406 RMS(Int)=    0.0000000468
done
Storing new coordinates                 .... done

                                .--------------------.
          ----------------------|Geometry convergence|-------------------------
          Item                value                   Tolerance       Converged
          ---------------------------------------------------------------------
          RMS gradient        0.0064489715            0.0001000000      NO
          MAX gradient        0.0197725396            0.0003000000      NO
          RMS step            0.0480384461            0.0020000000      NO
          MAX step            0.1105020245            0.0040000000      NO
          ........................................................
          Max(Bonds)      0.0138      Max(Angles)    5.41
          Max(Dihed)        6.33      Max(Improp)    0.00
          ---------------------------------------------------------------------

The optimization has not yet converged - more geometry cycles are needed


    ---------------------------------------------------------------------------
                         Redundant Internal Coordinates
                            (Angstroem and degrees)

        Definition                    Value    dE/dq     Step     New-Value
    ----------------------------------------------------------------------------
     1. B(C   1,C   0)                1.5204 -0.002066  0.0027    1.5232   
     2. B(C   2,C   1)                1.5238  0.010374 -0.0138    1.5100   
     3. B(H   3,C   0)                1.1011 -0.000010  0.0000    1.1011   
     4. B(H   4,C   0)                1.1022  0.000030 -0.0000    1.1021   
     5. B(H   5,C   0)                1.1020  0.000032 -0.0000    1.1019   
     6. B(H   6,C   1)                1.1048  0.000255 -0.0004    1.1045   
     7. B(H   7,C   1)                1.1047  0.000199 -0.0003    1.1044   
     8. B(H   8,C   2)                1.1048  0.000749 -0.0011    1.1037   
     9. B(H   9,C   2)                1.1047  0.000672 -0.0010    1.1037   
    10. A(C   1,C   0,H   5)          111.32 -0.000667    0.14    111.45   
    11. A(H   3,C   0,H   4)          107.53 -0.000698    0.07    107.60   
    12. A(H   3,C   0,H   5)          107.46 -0.000703    0.07    107.53   
    13. A(C   1,C   0,H   4)          111.31 -0.000675    0.14    111.45   
    14. A(H   4,C   0,H   5)          107.29  0.000229    0.07    107.36   
    15. A(C   1,C   0,H   3)          111.71  0.002430   -0.47    111.24   
    16. A(C   0,C   1,C   2)          113.63  0.007542   -1.31    112.32   
    17. A(H   6,C   1,H   7)          105.52  0.000767    0.22    105.74   
    18. A(C   2,C   1,H   7)          109.07 -0.003426    0.61    109.68   
    19. A(C   0,C   1,H   7)          109.62 -0.000982   -0.01    109.61   
    20. A(C   2,C   1,H   6)          109.07 -0.003423    0.61    109.69   
    21. A(C   0,C   1,H   6)          109.60 -0.000993   -0.01    109.59   
    22. A(H   8,C   2,H   9)          105.52  0.000773    4.94    110.47   
    23. A(C   1,C   2,H   9)          109.07 -0.019773    5.41    114.49   
    24. A(C   1,C   2,H   8)          109.07 -0.019768    5.41    114.49   
    25. D(H   7,C   1,C   0,H   3)    -57.67  0.000097   -0.13    -57.80   
    26. D(C   2,C   1,C   0,H   4)     59.80 -0.000308    0.14     59.93   
    27. D(H   6,C   1,C   0,H   3)     57.71 -0.000094    0.13     57.83   
    28. D(C   2,C   1,C   0,H   3)   -179.99 -0.000003    0.00   -179.99   
    29. D(C   2,C   1,C   0,H   5)    -59.85  0.000302   -0.13    -59.98   
    30. D(H   6,C   1,C   0,H   5)    177.85  0.000210   -0.01    177.84   
    31. D(H   7,C   1,C   0,H   4)   -177.88 -0.000209    0.01   -177.88   
    32. D(H   7,C   1,C   0,H   5)     62.47  0.000402   -0.26     62.21   
    33. D(H   6,C   1,C   0,H   4)    -62.51 -0.000400    0.26    -62.25   
    34. D(H   9,C   2,C   1,H   6)     65.22  0.011624   -6.33     58.88   
    35. D(H   9,C   2,C   1,C   0)    -57.38  0.010235   -5.87    -63.25   
    36. D(H   8,C   2,C   1,H   7)    -65.21 -0.011621    6.32    -58.90   
    37. D(H   8,C   2,C   1,H   6)   -180.00 -0.008830    5.39   -174.61   
    38. D(H   9,C   2,C   1,H   7)    180.00  0.008833   -5.41    174.59   
    39. D(H   8,C   2,C   1,C   0)     57.41 -0.010219    5.85     63.26   
    ----------------------------------------------------------------------------

         *************************************************************
         *                GEOMETRY OPTIMIZATION CYCLE   2            *
         *************************************************************
---------------------------------
CARTESIAN COORDINATES (ANGSTROEM)
---------------------------------
  C     -2.299031    0.966838   -0.374148
  C     -1.297241   -0.082988    0.088787
  C      0.130844    0.333443   -0.170311
  H     -3.333538    0.645538   -0.176782
  H     -2.210460    1.159046   -1.455768
  H     -2.145028    1.927053    0.144067
  H     -1.503369   -1.041395   -0.419925
  H     -1.437648   -0.279578    1.166490
  H      0.445372    1.233711    0.385365
  H      0.378189    0.453313   -1.239286

----------------------------
CARTESIAN COORDINATES (A.U.)
----------------------------
  NO LB      ZA    FRAG     MASS         X           Y           Z
   0 C     6.0000    0    12.011   -4.344539    1.827060   -0.707038
   1 C     6.0000    0    12.011   -2.451430   -0.156825    0.167783
   2 C     6.0000    0    12.011    0.247260    0.630116   -0.321840
   3 H     1.0000    0     1.008   -6.299474    1.219890   -0.334069
   4 H     1.0000    0     1.008   -4.177163    2.190279   -2.751003
   5 H     1.0000    0     1.008   -4.053516    3.641602    0.272248
   6 H     1.0000    0     1.008   -2.840955   -1.967952   -0.793543
   7 H     1.0000    0     1.008   -2.716761   -0.528326    2.204347
   8 H     1.0000    0     1.008    0.841630    2.331375    0.728234
   9 H     1.0000    0     1.008    0.714673    0.856638   -2.341911

--------------------------------
INTERNAL COORDINATES (ANGSTROEM)
--------------------------------
 C      0   0   0     0.000000000000     0.00000000     0.00000000
 C      1   0   0     1.523163721735     0.00000000     0.00000000
 C      2   1   0     1.509958212250   112.32151904     0.00000000
 H      1   2   3     1.101087198748   111.24353065   180.01215930
 H      1   2   3     1.102129702030   111.44574190    59.93417474
 H      1   2   3     1.101942010292   111.45343068   300.01728876
 H      2   1   3     1.104455116431   109.59440285   237.81793792
 H      2   1   3     1.104448292981   109.61151459   122.19147133
 H      3   2   1     1.103714257470   114.08451158    63.50664965
 H      3   2   1     1.103746517527   114.08446950   296.49869122

---------------------------
INTERNAL COORDINATES (A.U.)
---------------------------
 C      0   0   0     0.000000000000     0.00000000     0.00000000
 C      1   0   0     2.878362291202     0.00000000     0.00000000
 C      2   1   0     2.853407494817   112.32151904     0.00000000
 H      1   2   3     2.080753255201   111.24353065   180.01215930
 H      1   2   3     2.082723300897   111.44574190    59.93417474
 H      1   2   3     2.082368614915   111.45343068   300.01728876
 H      2   1   3     2.087117697262   109.59440285   237.81793792
 H      2   1   3     2.087104802811   109.61151459   122.19147133
 H      3   2   1     2.085717676723   114.08451158    63.50664965
 H      3   2   1     2.085778639396   114.08446950   296.49869122


Diagonalization of the overlap matrix:
Smallest eigenvalue                        ... 3.315e-03
Time for diagonalization                   ...    0.004 sec
Threshold for overlap eigenvalues          ... 1.000e-08
Number of eigenvalues below threshold      ... 0
Time for construction of square roots      ...    0.001 sec
Total time needed                          ...    0.005 sec

-------------------
DFT GRID GENERATION
-------------------

General Integration Accuracy     IntAcc      ...  4.340
Radial Grid Type                 RadialGrid  ... Gauss-Chebyshev
Angular Grid (max. acc.)         AngularGrid ... Lebedev-110
Angular grid pruning method      GridPruning ... 3 (G Style)
Weight generation scheme         WeightScheme... Becke
Basis function cutoff            BFCut       ...    1.0000e-11
Integration weight cutoff        WCut        ...    1.0000e-14
Grids for H and He will be reduced by one unit

# of grid points (after initial pruning)     ...  10526 (   0.0 sec)
# of grid points (after weights+screening)   ...  10036 (   0.0 sec)
nearest neighbour list constructed           ...    0.0 sec
Grid point re-assignment to atoms done       ...    0.0 sec
Grid point division into batches done        ...    0.0 sec
Reduced shell lists constructed in    0.1 sec

Total number of grid points                  ...    10036
Total number of batches                      ...      163
Average number of points per batch           ...       61
Average number of grid points per atom       ...     1004
Average number of shells per batch           ...    34.01 (87.21%)
Average number of basis functions per batch  ...    66.90 (86.89%)
Average number of large shells per batch     ...    29.52 (86.81%)
Average number of large basis fcns per batch ...    56.95 (85.13%)
Maximum spatial batch extension              ...  24.33, 21.59, 21.59 au
Average spatial batch extension              ...   4.59,  4.17,  4.18 au

Time for grid setup =    0.088 sec

--------------
SCF ITERATIONS
--------------
ITER       Energy         Delta-E        Max-DP      RMS-DP      [F,P]     Damp
               ***  Starting incremental Fock matrix formation  ***
  0   -118.2248498014   0.000000000000 0.00343087  0.00014118  0.0136951 0.7000
  1   -118.2252902519  -0.000440450498 0.00313340  0.00013026  0.0107426 0.7000
                               ***Turning on DIIS***
  2   -118.2256424296  -0.000352177632 0.00809536  0.00034739  0.0081309 0.0000
  3   -118.2265851422  -0.000942712619 0.00207150  0.00007425  0.0020050 0.0000
  4   -118.2266238620  -0.000038719863 0.00233146  0.00006848  0.0009465 0.0000
  5   -118.2266356130  -0.000011750978 0.00062643  0.00002155  0.0004385 0.0000
  6   -118.2266373108  -0.000001697827 0.00009820  0.00000404  0.0000757 0.0000
  7   -118.2266373753  -0.000000064499 0.00002672  0.00000099  0.0000366 0.0000
  8   -118.2266373825  -0.000000007129 0.00001093  0.00000047  0.0000101 0.0000
  9   -118.2266373840  -0.000000001510 0.00000332  0.00000016  0.0000028 0.0000
 10   -118.2266373839   0.000000000058 0.00000099  0.00000005  0.0000013 0.0000
                 **** Energy Check signals convergence ****

               *****************************************************
               *                     SUCCESS                       *
               *           SCF CONVERGED AFTER  11 CYCLES          *
               *****************************************************

Setting up the final grid:

General Integration Accuracy     IntAcc      ...  4.670
Radial Grid Type                 RadialGrid  ... Gauss-Chebyshev
Angular Grid (max. acc.)         AngularGrid ... Lebedev-302
Angular grid pruning method      GridPruning ... 3 (G Style)
Weight generation scheme         WeightScheme... Becke
Basis function cutoff            BFCut       ...    1.0000e-11
Integration weight cutoff        WCut        ...    1.0000e-14
Grids for H and He will be reduced by one unit

# of grid points (after initial pruning)     ...  42394 (   0.0 sec)
# of grid points (after weights+screening)   ...  39944 (   0.1 sec)
nearest neighbour list constructed           ...    0.0 sec
Grid point re-assignment to atoms done       ...    0.0 sec
Grid point division into batches done        ...    0.1 sec
Reduced shell lists constructed in    0.4 sec

Total number of grid points                  ...    39944
Total number of batches                      ...      628
Average number of points per batch           ...       63
Average number of grid points per atom       ...     3994
Average number of shells per batch           ...    31.74 (81.39%)
Average number of basis functions per batch  ...    62.17 (80.75%)
Average number of large shells per batch     ...    26.85 (84.58%)
Average number of large basis fcns per batch ...    51.13 (82.24%)
Maximum spatial batch extension              ...  22.81, 22.41, 18.20 au
Average spatial batch extension              ...   2.85,  2.86,  2.77 au

Final grid set up in    0.5 sec
Final integration                            ... done (   0.7 sec)
Change in XC energy                          ...    -0.000177068
Integrated number of electrons               ...    25.000030413
Previous integrated no of electrons          ...    24.996748280
Total Energy       :         -118.22681445 Eh           -3217.11518 eV
  Last Energy change         ...   -2.8385e-10  Tolerance :   1.0000e-08
  Last MAX-Density change    ...    8.0306e-07  Tolerance :   1.0000e-07
             **** THE GBW FILE WAS UPDATED (propyl.gbw) ****
             **** DENSITY FILE WAS UPDATED (propyl.scfp) ****
             **** ENERGY FILE WAS UPDATED (propyl.en.tmp) ****
----------------------
UHF SPIN CONTAMINATION
----------------------

Warning: in a DFT calculation there is little theoretical justification to 
         calculate <S**2> as in Hartree-Fock theory. We will do it anyways
         but you should keep in mind that the values have only limited relevance

Expectation value of <S**2>     :     0.753519
Ideal value S*(S+1) for S=0.5   :     0.750000
Deviation                       :     0.003519

             **** THE GBW FILE WAS UPDATED (propyl.gbw) ****
             **** DENSITY FILE WAS UPDATED (propyl.scfp) ****
Total SCF time: 0 days 0 hours 0 min 12 sec 

-------------------------   --------------------
FINAL SINGLE POINT ENERGY      -118.226814452571
-------------------------   --------------------

------------------------------------------------------------------------------
                         ORCA SCF GRADIENT CALCULATION
------------------------------------------------------------------------------

Gradient of the Kohn-Sham DFT energy:
Kohn-Sham wavefunction type      ... UKS
Hartree-Fock exchange scaling    ...    0.250
Number of operators              ...    2
Number of atoms                  ...   10
Basis set dimensions             ...   77
Integral neglect threshold       ... 2.5e-11
Integral primitive cutoff        ... 2.5e-12

Nuclear repulsion gradient       ... done
One Electron Gradient            ... done
Pre-screening matrix             ... done
Starting the two electron gradient:
Two electron gradient done
Exchange-correlation gradient    ... done

------------------
CARTESIAN GRADIENT
------------------

   1   C   :    0.001496618   -0.003121933    0.001449264
   2   C   :   -0.012810406    0.008602334   -0.003562858
   3   C   :    0.021070229   -0.021149866    0.009371220
   4   H   :    0.000286784    0.000414005   -0.000224088
   5   H   :   -0.000053732    0.000209262   -0.000282831
   6   H   :   -0.000026059    0.000340617    0.000022456
   7   H   :    0.000557133   -0.000770955    0.000282601
   8   H   :    0.000574364   -0.000730588    0.000361386
   9   H   :   -0.005603824    0.007561247   -0.004733978
  10   H   :   -0.005491108    0.008645877   -0.002683171

Difference to translation invariance:
           :   -0.0000000000    0.0000000000   -0.0000000000

Norm of the cartesian gradient     ...    0.0383352809
RMS gradient                       ...    0.0069990327
MAX gradient                       ...    0.0211498657

-------
TIMINGS
-------

Total SCF gradient time            ...        5.834 sec

One electron gradient       ....       0.033 sec  (  0.6%)
Prescreening matrices       ....       0.037 sec  (  0.6%)
Two electron gradient       ....       1.781 sec  ( 30.5%)
XC gradient                 ....       3.708 sec  ( 63.6%)
------------------------------------------------------------------------------
                         ORCA GEOMETRY RELAXATION STEP
------------------------------------------------------------------------------

Reading the OPT-File                    .... done
Getting information on internals        .... done
Copying old internal coords+grads       .... done
Making the new internal coordinates     .... (new redundants).... done
Validating the new internal coordinates .... (new redundants).... done
Calculating the B-matrix                .... done
Calculating the G,G- and P matrices     .... done
Transforming gradient to internals      .... done
Projecting the internal gradient        .... done
Number of atoms                         ....  10
Number of internal coordinates          ....  39
Current Energy                          ....  -118.226814453 Eh
Current gradient norm                   ....     0.038335281 Eh/bohr
Maximum allowed component of the step   ....  0.300
Current trust radius                    ....  0.300
Updating the Hessian (BFGS)             .... done
Forming the augmented Hessian           .... done
Diagonalizing the augmented Hessian     .... done
Last element of RFO vector              ....  0.951162777
Lowest eigenvalues of augmented Hessian:
 -0.005944151  0.010894940  0.011910275  0.052955084  0.081254825
Length of the computed step             ....  0.324539369
Warning: the length of the step is outside the trust region - taking restricted step instead
The input lambda is                     ....    -0.005944
   iter:   1  x=   -0.009865  g=    3.908946 f(x)=     0.015326
   iter:   2  x=   -0.010351  g=    3.161075 f(x)=     0.001535
   iter:   3  x=   -0.010357  g=    3.082155 f(x)=     0.000019
   iter:   4  x=   -0.010357  g=    3.081156 f(x)=     0.000000
   iter:   5  x=   -0.010357  g=    3.081156 f(x)=     0.000000
The output lambda is                    ....    -0.010357 (5 iterations)
The final length of the internal step   ....  0.300000000
Converting the step to cartesian space:
 Initial RMS(Int)=    0.0480384461
Transforming coordinates:
 Iter   0:  RMS(Cart)=    0.0458625891 RMS(Int)=    0.0488751620
 Iter   1:  RMS(Cart)=    0.0038528681 RMS(Int)=    0.0032720470
 Iter   2:  RMS(Cart)=    0.0002248093 RMS(Int)=    0.0002837547
 Iter   3:  RMS(Cart)=    0.0000254912 RMS(Int)=    0.0000222763
 Iter   4:  RMS(Cart)=    0.0000019145 RMS(Int)=    0.0000021359
 Iter   5:  RMS(Cart)=    0.0000001988 RMS(Int)=    0.0000001831
 Iter   6:  RMS(Cart)=    0.0000000200 RMS(Int)=    0.0000000194
done
Storing new coordinates                 .... done

                                .--------------------.
          ----------------------|Geometry convergence|-------------------------
          Item                value                   Tolerance       Converged
          ---------------------------------------------------------------------
          Energy change      -0.0079072795            0.0000050000      NO
          RMS gradient        0.0032854495            0.0001000000      NO
          MAX gradient        0.0077322160            0.0003000000      NO
          RMS step            0.0480384461            0.0020000000      NO
          MAX step            0.1137173229            0.0040000000      NO
          ........................................................
          Max(Bonds)      0.0202      Max(Angles)    4.75
          Max(Dihed)        6.52      Max(Improp)    0.00
          ---------------------------------------------------------------------

The optimization has not yet converged - more geometry cycles are needed


    ---------------------------------------------------------------------------
                         Redundant Internal Coordinates
                            (Angstroem and degrees)

        Definition                    Value    dE/dq     Step     New-Value
    ----------------------------------------------------------------------------
     1. B(C   1,C   0)                1.5232 -0.002895  0.0074    1.5306   
     2. B(C   2,C   1)                1.5100  0.007732 -0.0202    1.4898   
     3. B(H   3,C   0)                1.1011 -0.000433  0.0012    1.1023   
     4. B(H   4,C   0)                1.1021  0.000314 -0.0009    1.1012   
     5. B(H   5,C   0)                1.1019  0.000304 -0.0009    1.1011   
     6. B(H   6,C   1)                1.1045  0.000432 -0.0012    1.1032   
     7. B(H   7,C   1)                1.1044  0.000413 -0.0012    1.1033   
     8. B(H   8,C   2)                1.1037  0.002186 -0.0063    1.0974   
     9. B(H   9,C   2)                1.1037  0.002303 -0.0066    1.0971   
    10. A(C   1,C   0,H   5)          111.45  0.000081   -0.02    111.43   
    11. A(H   3,C   0,H   4)          107.60 -0.000256    0.08    107.67   
    12. A(H   3,C   0,H   5)          107.53 -0.000239    0.07    107.60   
    13. A(C   1,C   0,H   4)          111.45  0.000092   -0.02    111.42   
    14. A(H   4,C   0,H   5)          107.36 -0.000187    0.10    107.45   
    15. A(C   1,C   0,H   3)          111.24  0.000465   -0.18    111.07   
    16. A(C   0,C   1,C   2)          112.32  0.000756   -0.32    112.00   
    17. A(H   6,C   1,H   7)          105.74 -0.000277    0.28    106.02   
    18. A(C   2,C   1,H   7)          109.68 -0.000673    0.29    109.97   
    19. A(C   0,C   1,H   7)          109.61  0.000408   -0.26    109.35   
    20. A(C   2,C   1,H   6)          109.68 -0.000663    0.29    109.97   
    21. A(C   0,C   1,H   6)          109.59  0.000386   -0.25    109.35   
    22. A(H   8,C   2,H   9)          109.58  0.000404    4.75    114.34   
    23. A(C   1,C   2,H   9)          114.08 -0.007261    4.38    118.46   
    24. A(C   1,C   2,H   8)          114.08 -0.007270    4.38    118.47   
    25. D(H   7,C   1,C   0,H   3)    -57.80 -0.000062   -0.02    -57.82   
    26. D(C   2,C   1,C   0,H   4)     59.93 -0.000059    0.05     59.98   
    27. D(H   6,C   1,C   0,H   3)     57.83  0.000054    0.03     57.86   
    28. D(C   2,C   1,C   0,H   3)   -179.99 -0.000005    0.01   -179.98   
    29. D(C   2,C   1,C   0,H   5)    -59.98  0.000061   -0.04    -60.03   
    30. D(H   6,C   1,C   0,H   5)    177.84  0.000120   -0.02    177.81   
    31. D(H   7,C   1,C   0,H   4)   -177.87 -0.000115    0.02   -177.86   
    32. D(H   7,C   1,C   0,H   5)     62.21  0.000005   -0.08     62.13   
    33. D(H   6,C   1,C   0,H   4)    -62.25  0.000000    0.07    -62.18   
    34. D(H   9,C   2,C   1,H   6)     58.63  0.006780   -6.52     52.12   
    35. D(H   9,C   2,C   1,C   0)    -63.50  0.006243   -6.19    -69.69   
    36. D(H   8,C   2,C   1,H   7)    -58.65 -0.006772    6.46    -52.19   
    37. D(H   8,C   2,C   1,H   6)   -174.36 -0.005677    5.79   -168.57   
    38. D(H   9,C   2,C   1,H   7)    174.35  0.005685   -5.85    168.50   
    39. D(H   8,C   2,C   1,C   0)     63.51 -0.006214    6.11     69.62   
    ----------------------------------------------------------------------------

         *************************************************************
         *                GEOMETRY OPTIMIZATION CYCLE   3            *
         *************************************************************
---------------------------------
CARTESIAN COORDINATES (ANGSTROEM)
---------------------------------
  C     -2.320674    0.970635   -0.375045
  C     -1.294410   -0.068950    0.081804
  C      0.103322    0.370944   -0.187188
  H     -3.348525    0.630025   -0.168624
  H     -2.243361    1.163905   -1.456426
  H     -2.177973    1.931577    0.143220
  H     -1.492685   -1.026898   -0.428182
  H     -1.427048   -0.264568    1.159449
  H      0.498632    1.200217    0.413107
  H      0.430811    0.408093   -1.233624

----------------------------
CARTESIAN COORDINATES (A.U.)
----------------------------
  NO LB      ZA    FRAG     MASS         X           Y           Z
   0 C     6.0000    0    12.011   -4.385439    1.834235   -0.708732
   1 C     6.0000    0    12.011   -2.446080   -0.130296    0.154588
   2 C     6.0000    0    12.011    0.195251    0.700982   -0.353734
   3 H     1.0000    0     1.008   -6.327795    1.190575   -0.318654
   4 H     1.0000    0     1.008   -4.239338    2.199461   -2.752247
   5 H     1.0000    0     1.008   -4.115772    3.650152    0.270646
   6 H     1.0000    0     1.008   -2.820766   -1.940557   -0.809146
   7 H     1.0000    0     1.008   -2.696730   -0.499961    2.191040
   8 H     1.0000    0     1.008    0.942277    2.268081    0.780660
   9 H     1.0000    0     1.008    0.814115    0.771184   -2.331212

--------------------------------
INTERNAL COORDINATES (ANGSTROEM)
--------------------------------
 C      0   0   0     0.000000000000     0.00000000     0.00000000
 C      1   0   0     1.530577412321     0.00000000     0.00000000
 C      2   1   0     1.489804752991   112.00126379     0.00000000
 H      1   2   3     1.102316073940   111.06618920   180.01945693
 H      1   2   3     1.101233939902   111.42175986    59.98071082
 H      1   2   3     1.101077538075   111.43072093   299.97248713
 H      2   1   3     1.103206383288   109.34717337   237.83980830
 H      2   1   3     1.103257208064   109.35203686   122.16111276
 H      3   2   1     1.097414106839   117.53657913    69.96601809
 H      3   2   1     1.097113760530   117.53341452   289.96489842

---------------------------
INTERNAL COORDINATES (A.U.)
---------------------------
 C      0   0   0     0.000000000000     0.00000000     0.00000000
 C      1   0   0     2.892372136052     0.00000000     0.00000000
 C      2   1   0     2.815322976167   112.00126379     0.00000000
 H      1   2   3     2.083075492766   111.06618920   180.01945693
 H      1   2   3     2.081030555794   111.42175986    59.98071082
 H      1   2   3     2.080734999174   111.43072093   299.97248713
 H      2   1   3     2.084757933607   109.34717337   237.83980830
 H      2   1   3     2.084853978515   109.35203686   122.16111276
 H      3   2   1     2.073812117428   117.53657913    69.96601809
 H      3   2   1     2.073244545159   117.53341452   289.96489842


Diagonalization of the overlap matrix:
Smallest eigenvalue                        ... 3.299e-03
Time for diagonalization                   ...    0.003 sec
Threshold for overlap eigenvalues          ... 1.000e-08
Number of eigenvalues below threshold      ... 0
Time for construction of square roots      ...    0.002 sec
[...]
     17       0.000000   0.000000   0.000000   0.000000   0.000000   0.000000
     18       0.000000   0.000000   0.000000   0.000000   0.000000   0.000000
     19       0.000000   0.000000   0.000000   0.000000   0.000000   0.000000
     20       0.000000   0.000000   0.000000   0.000000   0.000000   0.000000
     21       0.000000   0.000000   0.000000   0.000000   0.000000   0.000000
     22       0.000000   0.000000   0.000000   0.000000   0.000000   0.000000
     23       0.000000   0.000000   0.000000   0.000000   0.000000   0.000000
     24       0.000000   0.000000   0.000000   0.000000   0.000000   0.000000
     25       0.000000   0.000000   0.000000   0.000000   0.000000   0.000000
     26       0.000000   0.000000   0.000000   0.000000   0.000000   0.000000
     27       0.000000   0.000000   0.000000   0.000000   0.000000   0.000000
     28       0.000000   0.000000   0.000000   0.000000   0.000000   0.000000
     29       0.000000   0.000000   0.000000   0.000000   0.000000   0.000000
                  6          7          8          9         10         11    
      0       0.001141   0.000538   0.146312  -0.071624   0.000334  -0.002681
      1       0.017040   0.002821   0.013598   0.022371   0.006155  -0.026504
      2       0.035372   0.005828  -0.012504  -0.007810   0.012243  -0.056069
      3      -0.001880  -0.002404  -0.027888   0.019663   0.002767  -0.000553
      4      -0.022577  -0.028315  -0.126081   0.065795   0.031237  -0.007537
      5      -0.047435  -0.057899   0.061925  -0.032046   0.065086  -0.014881
      6       0.000728   0.001614  -0.110555   0.134300   0.000817   0.003138
      7       0.004486   0.021879   0.040915  -0.180869   0.007835   0.029454
      8       0.010041   0.045241  -0.015606   0.080270   0.016800   0.062115
      9       0.001836   0.022119   0.037859   0.011815  -0.004092   0.007659
     10       0.021934   0.252190   0.229928  -0.146098  -0.044749   0.088691
     11       0.046676   0.521192  -0.114778   0.069055  -0.093085   0.183748
     12      -0.026344  -0.376247   0.304710  -0.205249   0.146805  -0.257525
     13       0.077550  -0.371532   0.002791   0.026153  -0.254065   0.324491
     14       0.045691  -0.077641  -0.007994  -0.013557  -0.029307  -0.001760
     15       0.030595   0.359198   0.301619  -0.206332  -0.156760   0.264562
     16      -0.013453   0.159147  -0.003198   0.034060   0.140478  -0.210766
     17       0.087243  -0.363801  -0.014055   0.001030  -0.206850   0.234733
     18       0.008015   0.013339  -0.030442  -0.035615   0.086376   0.320819
     19       0.008321   0.006860  -0.115530   0.070137   0.284780  -0.094847
     20      -0.096917  -0.129335   0.047353  -0.022295  -0.443080   0.035147
     21      -0.014043  -0.021854  -0.029429  -0.034952  -0.106429  -0.321202
     22      -0.079885  -0.105510  -0.107633   0.062530  -0.520981   0.096445
     23      -0.053514  -0.073910   0.063116  -0.037723  -0.047908  -0.030526
     24      -0.321731  -0.068064  -0.338177  -0.255989   0.262076   0.366065
     25       0.557376  -0.025573   0.423233   0.518707   0.050030   0.050472
     26      -0.253355   0.141866  -0.193441  -0.257702  -0.220503  -0.233891
     27       0.321812   0.074511  -0.339904  -0.254789  -0.274669  -0.379231
     28      -0.559329   0.127482   0.423197   0.539138  -0.194403  -0.199819
     29       0.248266   0.063012  -0.183131  -0.220379  -0.080878  -0.082177
                 12         13         14         15         16         17    
      0       0.198025  -0.012504   0.067044  -0.003731  -0.003512  -0.051986
      1      -0.052969   0.193615  -0.024304  -0.049409  -0.034101  -0.046549
      2       0.017136  -0.092135   0.009590  -0.103752  -0.068969   0.025480
      3      -0.006787   0.127304  -0.189352   0.006131   0.002092   0.182223
      4       0.130208  -0.195319  -0.061521   0.079101   0.001886  -0.012875
      5      -0.062301   0.087855   0.036421   0.167004   0.003367  -0.001049
      6      -0.145105  -0.034299   0.178699  -0.003534   0.002037  -0.012897
      7      -0.032318   0.030706   0.088599  -0.046996   0.026703   0.010390
      8       0.021765  -0.012810  -0.049403  -0.099872   0.055900  -0.005588
      9       0.466519   0.243384   0.130040   0.010595   0.002711  -0.152701
     10      -0.590208  -0.346654  -0.160422   0.103508   0.055253   0.155031
     11       0.265492   0.155295   0.070406   0.217339   0.109029  -0.069274
     12      -0.183670  -0.523124  -0.087486  -0.192037  -0.091263   0.118732
     13      -0.089730   0.152438  -0.060982   0.321987   0.175859   0.105711
     14      -0.001431  -0.123226  -0.001428  -0.039172  -0.035486   0.054357
     15      -0.178756  -0.521394  -0.087760   0.193810   0.097785   0.108649
     16      -0.049865   0.210570  -0.031398  -0.236248  -0.140026   0.022676
     17       0.083610  -0.009964   0.051531   0.214748   0.106143  -0.126225
     18      -0.162000  -0.061087  -0.576315   0.143143  -0.635797  -0.559316
     19       0.171373  -0.139640   0.003037   0.266508   0.147137   0.198926
     20      -0.081568   0.048893   0.046861  -0.236509  -0.044491  -0.130871
     21      -0.163212  -0.053141  -0.575082  -0.152736   0.623896  -0.573409
     22       0.175142  -0.120538  -0.013541  -0.349513  -0.141321   0.247365
     23      -0.072514   0.082596   0.006463   0.070914   0.043660  -0.037704
     24      -0.162803  -0.020877   0.262270  -0.341937   0.143122  -0.168702
     25      -0.068511  -0.044456   0.099167  -0.062318   0.047355  -0.031837
     26       0.057084   0.038164  -0.101820   0.173166  -0.067476   0.131562
     27      -0.165790  -0.022979   0.262406   0.352676  -0.147812  -0.171438
     28      -0.083474  -0.057296   0.131078   0.162267  -0.078565  -0.113607
     29       0.028154   0.011874  -0.031598   0.035856   0.004233  -0.046381
                 18         19         20         21         22         23    
      0      -0.107290  -0.005930   0.020799  -0.001561  -0.021660   0.010222
      1       0.086164   0.012898   0.027814  -0.019719  -0.023291  -0.000879
      2      -0.037195  -0.005857  -0.012851  -0.042648   0.012620   0.000055
      3       0.019595  -0.024695  -0.030336  -0.002393  -0.066984  -0.015840
      4      -0.011584   0.036209  -0.042755  -0.010664  -0.050884  -0.059160
      5       0.005012  -0.016465   0.022447  -0.018079   0.027532   0.029381
      6      -0.009416   0.092895   0.048624   0.002067   0.047022   0.000834
      7      -0.002354   0.036438   0.013825   0.001577   0.013320   0.000055
      8       0.001413  -0.021175  -0.008662   0.001709  -0.008375  -0.000097
      9       0.194498   0.039466  -0.068612   0.026446   0.119699  -0.141204
     10      -0.489623  -0.072530   0.168890   0.304645  -0.286589  -0.060804
     11       0.227067   0.031211  -0.100472   0.629190   0.124892   0.035280
     12       0.465568   0.039926  -0.142949   0.496869   0.154040   0.006135
     13      -0.304753  -0.025968  -0.421131   0.041509   0.461867   0.012553
     14      -0.069384  -0.010815  -0.093433   0.004810   0.099884  -0.068122
     15       0.481434   0.044182  -0.094317  -0.495566   0.142749   0.010197
     16      -0.151292  -0.009105  -0.184684  -0.012766   0.205104   0.059981
     17       0.250320   0.023966   0.392322   0.082506  -0.434687   0.031636
     18      -0.050138  -0.000744   0.087814   0.039183   0.153100   0.111592
     19       0.010276  -0.170480   0.178961  -0.032124   0.114467   0.595160
     20      -0.015833   0.340370  -0.412951   0.003296  -0.347173   0.333347
     21      -0.049853  -0.015673   0.112398  -0.030127   0.173385   0.070504
     22       0.019886  -0.372096   0.428678   0.051825   0.336310   0.109129
     23       0.005381  -0.078600   0.112589  -0.012406   0.117136  -0.682779
     24       0.055794  -0.410620  -0.174169   0.003313  -0.119005   0.000038
     25       0.008876  -0.037962  -0.014252  -0.002695  -0.004115  -0.000011
     26      -0.054220   0.414324   0.181272   0.002993   0.133747   0.001771
     27       0.059829  -0.438536  -0.185926  -0.017632  -0.128026  -0.000256
     28       0.046011  -0.331193  -0.143161  -0.007149  -0.101922  -0.001247
     29       0.023321  -0.202158  -0.090460  -0.007156  -0.072446  -0.000730
                 24         25         26         27         28         29    
      0       0.038331  -0.000506   0.063264   0.004485  -0.001136   0.000025
      1      -0.029477  -0.007530   0.059533   0.041363  -0.002385   0.000233
      2       0.013215  -0.015450  -0.033536   0.082070   0.000544   0.000481
      3       0.001695   0.003418   0.001369   0.000732   0.003935   0.000217
      4       0.011291   0.040056   0.004481   0.007873   0.000428   0.002273
      5      -0.005699   0.082846  -0.002681   0.016112  -0.000659   0.004753
      6       0.000098  -0.000238  -0.001736  -0.000493  -0.055830   0.003492
      7       0.000046  -0.002108  -0.001027  -0.001012  -0.026519   0.042723
      8      -0.000009  -0.004385   0.000593  -0.001594   0.014122   0.090680
      9      -0.543828  -0.001862  -0.705144  -0.010881   0.014322  -0.000037
     10      -0.223829  -0.002851  -0.279004   0.002207   0.006813  -0.000116
     11       0.131055  -0.004051   0.164096   0.016353  -0.004007  -0.000245
     12       0.032948  -0.008695  -0.012759   0.036404  -0.000680  -0.000894
     13       0.090084  -0.023946  -0.067078   0.123849   0.002471   0.001202
     14      -0.546297   0.129431   0.447356  -0.666074  -0.012867  -0.004062
     15       0.065402   0.016856  -0.036943  -0.079068   0.001066   0.000630
     16       0.474144   0.118373  -0.365261  -0.618185   0.019335  -0.003944
     17       0.262484   0.062499  -0.210956  -0.326721   0.010184  -0.001661
     18      -0.017852  -0.113964  -0.006598  -0.019415  -0.001679  -0.007929
     19      -0.102131  -0.603280  -0.038415  -0.116561   0.002815  -0.031877
     20      -0.056590  -0.320429  -0.019564  -0.062101   0.000810  -0.017678
     21      -0.011086   0.072639  -0.004598   0.011264  -0.002294   0.005711
     22      -0.019669   0.122769  -0.009679   0.023412   0.000472   0.005954
     23       0.118795  -0.673046   0.048616  -0.128667   0.001243  -0.036613
     24      -0.002159   0.015523   0.009006   0.006236   0.337430  -0.340117
     25      -0.004082   0.025698   0.012157   0.010565   0.415826  -0.411051
     26      -0.005403   0.021661   0.013810   0.010600   0.467874  -0.447245
     27      -0.001523  -0.012369   0.007570  -0.000830   0.283741   0.298133
     28       0.001641   0.000778  -0.003250   0.000095  -0.108421  -0.099096
     29       0.006511   0.033118  -0.018869   0.005705  -0.630143  -0.635374


-----------
IR SPECTRUM
-----------

 Mode    freq (cm**-1)   T**2         TX         TY         TZ
-------------------------------------------------------------------
   6:        46.71    0.258714  ( -0.019725  -0.189328  -0.471678)
   7:       259.75    0.003238  (  0.000093   0.044215   0.035826)
   8:       333.90    8.178156  ( -1.439311   2.258580  -1.002675)
   9:       528.35   45.457511  ( -3.938597   5.008687  -2.204091)
  10:       744.24    3.895477  ( -0.074494  -0.865333  -1.772322)
  11:       886.30    0.675784  (  0.023937   0.375036   0.731135)
  12:       915.28    1.561507  ( -1.007883  -0.651554   0.348075)
  13:      1049.79    2.294678  ( -0.827609  -1.139444   0.558040)
  14:      1112.00    0.104211  ( -0.268525  -0.163252   0.073850)
  15:      1179.84    0.098170  ( -0.024033  -0.138705  -0.279916)
  16:      1295.72    0.494756  (  0.052497   0.304867   0.631709)
  17:      1319.61    1.277580  (  1.095956   0.223379  -0.162980)
  18:      1381.57    0.504161  (  0.356470  -0.552599   0.267815)
  19:      1442.56    1.787822  ( -0.057193  -1.204264   0.578186)
  20:      1460.05    1.175995  ( -1.083645   0.014394  -0.038762)
  21:      1465.63    6.806494  (  0.095877   1.138831   2.345286)
  22:      1481.63    4.020240  (  0.864536   1.610593  -0.823898)
  23:      3047.31   28.790881  ( -0.438095  -4.809868   2.337546)
  24:      3051.55   23.194536  (  4.394916  -1.831273   0.725042)
  25:      3099.37   11.306148  (  0.150028   1.461806   3.024361)
  26:      3146.00   22.882624  (  3.190828   3.110287  -1.739930)
  27:      3153.66   25.118730  (  0.225869   2.250263   4.472586)
  28:      3158.54   11.319886  ( -3.085767  -1.178948   0.638757)
  29:      3273.15    7.980653  (  0.079242   1.203854   2.554429)

The first frequency considered to be a vibration is 6
The total number of vibrations considered is 24


--------------------------
THERMOCHEMISTRY AT 298.15K
--------------------------

Temperature         ... 298.15 K
Pressure            ... 1.00 atm
Total Mass          ... 43.09 AMU

Throughout the following assumptions are being made:
  (1) The electronic state is orbitally nondegenerate
      but the spin degeneracy is treated
  (2) There are no thermally accessible electronically excited states
  (3) Hindered rotations indicated by low frequency modes are not
      treated as such but are treated as vibrations and this may
      cause some error
  (4) All equations used are the standard statistical mechanics
      equations for an ideal gas
  (5) All vibrations are strictly harmonic

freq.      46.71  E(vib)   ...       0.53 
freq.     259.75  E(vib)   ...       0.30 
freq.     333.90  E(vib)   ...       0.24 
freq.     528.35  E(vib)   ...       0.13 
freq.     744.24  E(vib)   ...       0.06 
freq.     886.30  E(vib)   ...       0.04 
freq.     915.28  E(vib)   ...       0.03 
freq.    1049.79  E(vib)   ...       0.02 
freq.    1112.00  E(vib)   ...       0.01 
freq.    1179.84  E(vib)   ...       0.01 
freq.    1295.72  E(vib)   ...       0.01 
freq.    1319.61  E(vib)   ...       0.01 
freq.    1381.57  E(vib)   ...       0.01 
freq.    1442.56  E(vib)   ...       0.00 
freq.    1460.05  E(vib)   ...       0.00 
freq.    1465.63  E(vib)   ...       0.00 
freq.    1481.63  E(vib)   ...       0.00 
freq.    3047.31  E(vib)   ...       0.00 
freq.    3051.55  E(vib)   ...       0.00 
freq.    3099.37  E(vib)   ...       0.00 
freq.    3146.00  E(vib)   ...       0.00 
freq.    3153.66  E(vib)   ...       0.00 
freq.    3158.54  E(vib)   ...       0.00 
freq.    3273.15  E(vib)   ...       0.00 

------------
INNER ENERGY
------------

The inner energy is: U= E(el) + E(ZPE) + E(vib) + E(rot) + E(trans)
    E(el)   - is the total energy from the electronic structure calculation
              = E(kin-el) + E(nuc-el) + E(el-el) + E(nuc-nuc)
    E(ZPE)  - the the zero temperature vibrational energy from the frequency calculation
    E(vib)  - the the finite temperature correction to E(ZPE) due to population
              of excited vibrational states
    E(rot)  - is the rotational thermal energy
    E(trans)- is the translational thermal energy

Summary of contributions to the inner energy U:
Electronic energy                ...   -118.23287382 Eh
Zero point energy                ...      0.08846693 Eh      55.51 kcal/mol
Thermal vibrational correction   ...      0.00222724 Eh       1.40 kcal/mol
Thermal rotational correction    ...      0.00141627 Eh       0.89 kcal/mol
Thermal translational correction ...      0.00141627 Eh       0.89 kcal/mol
-----------------------------------------------------------------------
Total thermal energy                   -118.13934711 Eh


Summary of corrections to the electronic energy:
(perhaps to be used in another calculation)
Total thermal correction                  0.00505978 Eh       3.18 kcal/mol
Non-thermal (ZPE) correction              0.08846693 Eh      55.51 kcal/mol
-----------------------------------------------------------------------
Total correction                          0.09352672 Eh      58.69 kcal/mol


--------
ENTHALPY
--------

The enthalpy is H = U + kB*T
                kB is Boltzmann's constant
Total free energy                 ...   -118.13934711 Eh 
Thermal Enthalpy correction       ...      0.00094421 Eh       0.59 kcal/mol
-----------------------------------------------------------------------
Total Enthalpy                    ...   -118.13840290 Eh


Note: Only C1 symmetry has been detected, increase convergence thresholds 
      if your molecule has a higher symmetry. Symmetry factor of 1.0 is   
      used for the rotational entropy correction. 
 

Note: Rotational entropy computed according to Herzberg 
Infrared and Raman Spectra, Chapter V,1, Van Nostrand Reinhold, 1945 
Point Group:  C1, Symmetry Number:   1  
Rotational constants in cm-1:     1.048749     0.294201     0.265343 

Vibrational entropy computed according to the QRRHO of S. Grimme
Chem.Eur.J. 2012 18 9955


-------
ENTROPY
-------

The entropy contributions are T*S = T*(S(el)+S(vib)+S(rot)+S(trans))
     S(el)   - electronic entropy
     S(vib)  - vibrational entropy
     S(rot)  - rotational entropy
     S(trans)- translational entropy
The entropies will be listed as mutliplied by the temperature to get
units of energy

Electronic entropy                ...      0.00065446 Eh      0.41 kcal/mol
Vibrational entropy               ...      0.00381198 Eh      2.39 kcal/mol
Rotational entropy                ...      0.01069228 Eh      6.71 kcal/mol
Translational entropy             ...      0.01767888 Eh     11.09 kcal/mol
-----------------------------------------------------------------------
Final entropy term                ...      0.03283759 Eh     20.61 kcal/mol

In case the symmetry of your molecule has not been determined correctly
or in case you have a reason to use a different symmetry number we print 
out the resulting rotational entropy values for sn=1,12 :
 --------------------------------------------------------
|  sn= 1 | S(rot)=       0.01069228 Eh      6.71 kcal/mol|
|  sn= 2 | S(rot)=       0.01003782 Eh      6.30 kcal/mol|
|  sn= 3 | S(rot)=       0.00965499 Eh      6.06 kcal/mol|
|  sn= 4 | S(rot)=       0.00938336 Eh      5.89 kcal/mol|
|  sn= 5 | S(rot)=       0.00917267 Eh      5.76 kcal/mol|
|  sn= 6 | S(rot)=       0.00900053 Eh      5.65 kcal/mol|
|  sn= 7 | S(rot)=       0.00885498 Eh      5.56 kcal/mol|
|  sn= 8 | S(rot)=       0.00872891 Eh      5.48 kcal/mol|
|  sn= 9 | S(rot)=       0.00861770 Eh      5.41 kcal/mol|
|  sn=10 | S(rot)=       0.00851822 Eh      5.35 kcal/mol|
|  sn=11 | S(rot)=       0.00842823 Eh      5.29 kcal/mol|
|  sn=12 | S(rot)=       0.00834607 Eh      5.24 kcal/mol|
 --------------------------------------------------------


-------------------
GIBBS FREE ENERGY
-------------------

The Gibbs free energy is G = H - T*S

Total enthalpy                    ...   -118.13840290 Eh 
Total entropy correction          ...     -0.03283759 Eh    -20.61 kcal/mol
-----------------------------------------------------------------------
Final Gibbs free energy         ...   -118.17124049 Eh

For completeness - the Gibbs free energy minus the electronic energy
G-E(el)                           ...      0.06163333 Eh     38.68 kcal/mol


Timings for individual modules:

Sum of individual times         ...      463.431 sec (=   7.724 min)
GTO integral calculation        ...        4.120 sec (=   0.069 min)   0.9 %
SCF iterations                  ...      106.035 sec (=   1.767 min)  22.9 %
SCF Gradient evaluation         ...       47.250 sec (=   0.787 min)  10.2 %
Geometry relaxation             ...        0.735 sec (=   0.012 min)   0.2 %
Analytical frequency calculation...      305.291 sec (=   5.088 min)  65.9 %
                             ****ORCA TERMINATED NORMALLY****
TOTAL RUN TIME: 0 days 0 hours 7 minutes 44 seconds 390 msec
