
                                 *****************
                                 * O   R   C   A *
                                 *****************

           --- An Ab Initio, DFT and Semiempirical electronic structure package ---

                  #######################################################
                  #                        -***-                        #
                  #          Department of theory and spectroscopy      #
                  #               Directorship: Frank Neese             #
                  #        Max Planck Institute fuer Kohlenforschung    #
                  #                Kaiser Wilhelm Platz 1               #
                  #                 D-45470 Muelheim/Ruhr               #
                  #                      Germany                        #
                  #                                                     #
                  #                  All rights reserved                #
                  #                        -***-                        #
                  #######################################################


                         Program Version 4.2.1 -  RELEASE  -


 With contributions from (in alphabetic order):
   Daniel Aravena         : Magnetic Suceptibility
   Michael Atanasov       : Ab Initio Ligand Field Theory (pilot matlab implementation)
   Alexander A. Auer      : GIAO ZORA, VPT2
   Ute Becker             : Parallelization
   Giovanni Bistoni       : ED, misc. LED, open-shell LED, HFLD
   Martin Brehm           : Molecular dynamics
   Dmytro Bykov           : SCF Hessian
   Vijay G. Chilkuri      : MRCI spin determinant printing, contributions to CSF-ICE
   Dipayan Datta          : RHF DLPNO-CCSD density
   Achintya Kumar Dutta   : EOM-CC, STEOM-CC
   Dmitry Ganyushin       : Spin-Orbit,Spin-Spin,Magnetic field MRCI
   Miquel Garcia          : C-PCM Hessian, Gaussian charge scheme
   Yang Guo               : DLPNO-NEVPT2, CIM, IAO-localization
   Andreas Hansen         : Spin unrestricted coupled pair/coupled cluster methods
   Benjamin Helmich-Paris : CASSCF linear response (MC-RPA)
   Lee Huntington         : MR-EOM, pCC
   Robert Izsak           : Overlap fitted RIJCOSX, COSX-SCS-MP3, EOM
   Christian Kollmar      : KDIIS, OOCD, Brueckner-CCSD(T), CCSD density
   Simone Kossmann        : Meta GGA functionals, TD-DFT gradient, OOMP2, MP2 Hessian
   Martin Krupicka        : AUTO-CI
   Lucas Lang             : DCDCAS
   Dagmar Lenk            : GEPOL surface, SMD
   Dimitrios Liakos       : Extrapolation schemes; Compound Job, initial MDCI parallelization
   Dimitrios Manganas     : Further ROCIS development; embedding schemes
   Dimitrios Pantazis     : SARC Basis sets
   Taras Petrenko         : DFT Hessian,TD-DFT gradient, ASA, ECA, R-Raman, ABS, FL, XAS/XES, NRVS
   Peter Pinski           : DLPNO-MP2, DLPNO-MP2 Gradient
   Christoph Reimann      : Effective Core Potentials
   Marius Retegan         : Local ZFS, SOC
   Christoph Riplinger    : Optimizer, TS searches, QM/MM, DLPNO-CCSD(T), (RO)-DLPNO pert. Triples
   Tobias Risthaus        : Range-separated hybrids, TD-DFT gradient, RPA, STAB
   Michael Roemelt        : Original ROCIS implementation
   Masaaki Saitow         : Open-shell DLPNO-CCSD energy and density
   Barbara Sandhoefer     : DKH picture change effects
   Avijit Sen             : IP-ROCIS
   Kantharuban Sivalingam : CASSCF convergence, NEVPT2, FIC-MRCI
   Bernardo de Souza      : ESD, SOC TD-DFT
   Georgi Stoychev        : AutoAux, RI-MP2 NMR
   Willem Van den Heuvel  : Paramagnetic NMR
   Boris Wezisla          : Elementary symmetry handling
   Frank Wennmohs         : Technical directorship


 We gratefully acknowledge several colleagues who have allowed us to
 interface, adapt or use parts of their codes:
   Stefan Grimme, W. Hujo, H. Kruse,             : VdW corrections, initial TS optimization,
                  C. Bannwarth                     DFT functionals, gCP, sTDA/sTD-DF
   Ed Valeev, F. Pavosevic, A. Kumar             : LibInt (2-el integral package), F12 methods
   Garnet Chan, S. Sharma, J. Yang, R. Olivares  : DMRG
   Ulf Ekstrom                                   : XCFun DFT Library
   Mihaly Kallay                                 : mrcc  (arbitrary order and MRCC methods)
   Andreas Klamt, Michael Diedenhofen            : otool_cosmo (COSMO solvation model)
   Jiri Pittner, Ondrej Demel                    : Mk-CCSD
   Frank Weinhold                                : gennbo (NPA and NBO analysis)
   Christopher J. Cramer and Donald G. Truhlar   : smd solvation model
   Lars Goerigk                                  : TD-DFT with DH, B97 family of functionals
   V. Asgeirsson, H. Jonsson                     : NEB implementation
   FAccTs GmbH                                   : IRC, NEB, NEB-TS, Multilevel, MM, QM/MM, CI optimization
   S Lehtola, MJT Oliveira, MAL Marques          : LibXC Library


 Your calculation uses the libint2 library for the computation of 2-el integrals
 For citations please refer to: http://libint.valeyev.net

 Your ORCA version has been built with support for libXC version: 4.2.3
 For citations please refer to: https://tddft.org/programs/libxc/

 This ORCA versions uses:
   CBLAS   interface :  Fast vector & matrix operations
   LAPACKE interface :  Fast linear algebra routines




***************************************
The coordinates will be read from file: V.xyz
***************************************


Your calculation utilizes the atom-pairwise dispersion correction
with the Becke-Johnson damping scheme (D3BJ)
Cite in your paper:
S.Grimme, S.Ehrlich, L.Goerigk, J Comput Chem, (2011), 32, 1456???1465 
S.Grimme, J.Antony, S.Ehrlich and H.Krieg, J.Chem.Phys., 132, (2010), 154104 
   

----- Orbital basis set information -----
Your calculation utilizes the basis: def2-SVP
   F. Weigend and R. Ahlrichs, Phys. Chem. Chem. Phys. 7, 3297 (2005).

================================================================================
                                        WARNINGS
                       Please study these warnings very carefully!
================================================================================


WARNING: your system is open-shell and RHF/RKS was chosen
  ===> : WILL SWITCH to UHF/UKS


WARNING: Geometry Optimization
  ===> : Switching off AutoStart
         For restart on a previous wavefunction, please use MOREAD

INFO   : the flag for use of LIBINT has been found!

================================================================================
                                       INPUT FILE
================================================================================
NAME = vanadium_opt.inp
|  1> ! PBE0 D3BJ
|  2> ! opt anfreq
|  3> * xyzfile 2 4 V.xyz **                         ****END OF INPUT****
================================================================================

                       *****************************
                       * Geometry Optimization Run *
                       *****************************

Geometry optimization settings:
Update method            Update   .... BFGS
Choice of coordinates    CoordSys .... Z-matrix Internals
Initial Hessian          InHess   .... Almoef's Model

Convergence Tolerances:
Energy Change            TolE     ....  5.0000e-06 Eh
Max. Gradient            TolMAXG  ....  3.0000e-04 Eh/bohr
RMS Gradient             TolRMSG  ....  1.0000e-04 Eh/bohr
Max. Displacement        TolMAXD  ....  4.0000e-03 bohr
RMS Displacement         TolRMSD  ....  2.0000e-03 bohr
Strict Convergence                ....  False
------------------------------------------------------------------------------
                        ORCA OPTIMIZATION COORDINATE SETUP
------------------------------------------------------------------------------

The optimization will be done in new redundant internal coordinates
Making redundant internal coordinates   ...  (new redundants) done
Evaluating the initial hessian          ...  (Almloef) done
Evaluating the coordinates              ...  done
Calculating the B-matrix                .... done
Calculating the G-matrix                .... done
Diagonalizing the G-matrix              .... done
The first mode is                       ....   57
The number of degrees of freedom        ....   51

    -----------------------------------------------------------------
                    Redundant Internal Coordinates


    -----------------------------------------------------------------
         Definition                    Initial Value    Approx d2E/dq
    -----------------------------------------------------------------
      1. B(O   1,V   0)                  1.9812         0.645282   
      2. B(O   2,V   0)                  1.9867         0.632480   
      3. B(O   3,V   0)                  1.9888         0.627556   
      4. B(O   4,V   0)                  1.9766         0.656364   
      5. B(O   5,V   0)                  1.9867         0.632366   
      6. B(O   6,V   0)                  1.9864         0.633081   
      7. B(H   7,O   1)                  0.9897         0.466253   
      8. B(H   8,O   2)                  0.9893         0.466918   
      9. B(H   9,O   3)                  0.9898         0.466120   
     10. B(H  10,O   4)                  0.9902         0.465276   
     11. B(H  11,O   5)                  0.9894         0.466716   
     12. B(H  12,O   6)                  0.9900         0.465758   
     13. B(H  13,O   4)                  0.9901         0.465538   
     14. B(H  14,O   1)                  0.9900         0.465715   
     15. B(H  15,O   6)                  0.9893         0.466960   
     16. B(H  16,O   3)                  0.9891         0.467289   
     17. B(H  17,O   2)                  0.9897         0.466255   
     18. B(H  18,O   5)                  0.9903         0.465219   
     19. A(O   2,V   0,O   4)           89.3537         0.551907   
     20. A(O   2,V   0,O   6)           90.0628         0.548138   
     21. A(O   3,V   0,O   6)           90.9393         0.547327   
     22. A(O   2,V   0,O   3)           90.8664         0.547229   
     23. A(O   4,V   0,O   5)           89.8807         0.551888   
     24. A(O   1,V   0,O   6)           89.6360         0.550226   
     25. A(O   2,V   0,O   5)           90.5249         0.548021   
     26. A(O   3,V   0,O   5)           89.9150         0.547210   
     27. A(O   4,V   0,O   6)           89.2626         0.552007   
     28. A(O   1,V   0,O   5)           89.7648         0.550108   
     29. A(O   1,V   0,O   4)           89.8746         0.554012   
     30. A(O   1,V   0,O   3)           89.9064         0.549312   
     31. A(V   0,O   1,H   7)          106.4763         0.409407   
     32. A(H   7,O   1,H  14)          104.4618         0.310565   
     33. A(V   0,O   1,H  14)          106.2710         0.409323   
     34. A(V   0,O   2,H   8)          107.1539         0.408060   
     35. A(H   8,O   2,H  17)          104.0440         0.310694   
     36. A(V   0,O   2,H  17)          106.8246         0.407957   
     37. A(H   9,O   3,H  16)          104.2860         0.310720   
     38. A(V   0,O   3,H  16)          107.3391         0.407553   
     39. A(V   0,O   3,H   9)          106.8272         0.407373   
     40. A(H  10,O   4,H  13)          104.1257         0.310441   
     41. A(V   0,O   4,H  13)          105.7271         0.410533   
     42. A(V   0,O   4,H  10)          105.6758         0.410492   
     43. A(H  11,O   5,H  18)          104.6892         0.310561   
     44. A(V   0,O   5,H  18)          106.2398         0.407784   
     45. A(V   0,O   5,H  11)          107.2622         0.408016   
     46. A(H  12,O   6,H  15)          104.6367         0.310645   
     47. A(V   0,O   6,H  15)          107.5822         0.408135   
     48. A(V   0,O   6,H  12)          106.4018         0.407949   
     49. D(H   7,O   1,V   0,O   6)    179.1567         0.003692   
     50. D(H   7,O   1,V   0,O   3)    -89.9033         0.003692   
     51. D(H   7,O   1,V   0,O   5)      0.0121         0.003692   
     52. D(H   7,O   1,V   0,O   4)     89.8933         0.003692   
     53. D(H  14,O   1,V   0,O   5)    110.9661         0.003692   
     54. D(H  14,O   1,V   0,O   6)    -69.8892         0.003692   
     55. D(H  14,O   1,V   0,O   4)   -159.1526         0.003692   
     56. D(H  14,O   1,V   0,O   3)     21.0507         0.003692   
     57. D(H  17,O   2,V   0,O   3)    -39.0699         0.003605   
     58. D(H  17,O   2,V   0,O   4)    141.1324         0.003605   
     59. D(H   8,O   2,V   0,O   5)    -17.9750         0.003605   
     60. D(H   8,O   2,V   0,O   6)    162.8883         0.003605   
     61. D(H   8,O   2,V   0,O   4)   -107.8498         0.003605   
     62. D(H  17,O   2,V   0,O   5)   -128.9928         0.003605   
     63. D(H  17,O   2,O   1,H   7)   -129.1987         0.001500   
     64. D(H   8,O   2,O   1,H  14)     93.1774         0.001500   
     65. D(H   8,O   2,O   1,H   7)    -17.9724         0.001500   
     66. D(H   8,O   2,V   0,O   3)     71.9479         0.003605   
     67. D(H  17,O   2,O   1,H  14)    -18.0489         0.001500   
     68. D(H  17,O   2,V   0,O   6)     51.8705         0.003605   
     69. D(H  16,O   3,V   0,O   6)    -10.5391         0.003572   
     70. D(H  16,O   3,V   0,O   2)     79.5379         0.003572   
     71. D(H  16,O   3,V   0,O   1)   -100.1735         0.003572   
     72. D(H   9,O   3,V   0,O   6)   -121.9158         0.003572   
     73. D(H   9,O   3,V   0,O   5)     58.6848         0.003572   
     74. D(H  16,O   3,V   0,O   5)    170.0616         0.003572   
     75. D(H   9,O   3,V   0,O   2)    -31.8388         0.003572   
     76. D(H   9,O   3,V   0,O   1)    148.4498         0.003572   
     77. D(H  10,O   4,V   0,O   5)     40.0152         0.003769   
     78. D(H  10,O   4,V   0,O   2)    130.5414         0.003769   
     79. D(H  10,O   4,V   0,O   1)    -49.7499         0.003769   
     80. D(H  13,O   4,O   3,H  16)    -39.9156         0.001500   
     81. D(H  10,O   4,O   3,H  16)   -149.8903         0.001500   
     82. D(H  10,O   4,O   3,H   9)     98.6615         0.001500   
     83. D(H  13,O   4,V   0,O   6)    -29.3666         0.003769   
     84. D(H  13,O   4,V   0,O   5)    150.0360         0.003769   
     85. D(H  13,O   4,V   0,O   2)   -119.4378         0.003769   
     86. D(H  13,O   4,O   3,H   9)   -151.3638         0.001500   
     87. D(H  13,O   4,V   0,O   1)     60.2709         0.003769   
     88. D(H  10,O   4,V   0,O   6)   -139.3875         0.003769   
     89. D(H  18,O   5,V   0,O   4)     40.5311         0.003605   
     90. D(H  18,O   5,V   0,O   2)    -48.8215         0.003605   
     91. D(H  18,O   5,V   0,O   1)    130.4062         0.003605   
     92. D(H  11,O   5,V   0,O   4)    152.0669         0.003605   
     93. D(H  11,O   5,V   0,O   3)    -28.1512         0.003605   
     94. D(H  18,O   5,V   0,O   3)   -139.6871         0.003605   
     95. D(H  11,O   5,V   0,O   2)     62.7144         0.003605   
     96. D(H  11,O   5,V   0,O   1)   -118.0580         0.003605   
     97. D(H  15,O   6,O   5,H  18)    -83.2561         0.001500   
     98. D(H  12,O   6,O   5,H  18)    164.8386         0.001500   
     99. D(H  12,O   6,O   5,H  11)    -83.4591         0.001500   
    100. D(H  15,O   6,V   0,O   4)   -123.6988         0.003609   
    101. D(H  15,O   6,V   0,O   3)     56.5215         0.003609   
    102. D(H  15,O   6,V   0,O   2)    -34.3460         0.003609   
    103. D(H  15,O   6,V   0,O   1)    146.4219         0.003609   
    104. D(H  12,O   6,V   0,O   4)    124.6109         0.003609   
    105. D(H  12,O   6,V   0,O   3)    -55.1688         0.003609   
    106. D(H  15,O   6,O   5,H  11)     28.4463         0.001500   
    107. D(H  12,O   6,V   0,O   2)   -146.0363         0.003609   
    108. D(H  12,O   6,V   0,O   1)     34.7316         0.003609   
    -----------------------------------------------------------------

Number of atoms                         .... 19
Number of degrees of freedom            .... 108

         *************************************************************
         *                GEOMETRY OPTIMIZATION CYCLE   1            *
         *************************************************************
---------------------------------
CARTESIAN COORDINATES (ANGSTROEM)
---------------------------------
  V     -4.130850    1.305410   -0.011130
  O     -4.267130    3.171430   -0.662760
  O     -4.017000   -0.572710    0.626500
  O     -2.228780    1.618620    0.478110
  O     -6.023730    1.003330   -0.493450
  O     -4.691820    1.904870    1.798020
  O     -3.599840    0.721070   -1.833880
  H     -4.553950    3.718520    0.110470
  H     -3.974310   -0.543360    1.614430
  H     -2.038490    1.051100    1.266350
  H     -6.524860    1.759840   -0.097030
  H     -3.946790    1.705090    2.417650
  H     -3.060150    1.457130   -2.217260
  H     -6.080450    1.160820   -1.469290
  H     -3.341100    3.469390   -0.846520
  H     -2.963330   -0.029540   -1.733480
  H     -1.671690    1.231430   -0.241610
  H     -3.127420   -0.913060    0.357680
  H     -5.421130    1.296150    2.077700

----------------------------
CARTESIAN COORDINATES (A.U.)
----------------------------
  NO LB      ZA    FRAG     MASS         X           Y           Z
   0 V    23.0000    0    50.940   -7.806175    2.466867   -0.021033
   1 O     8.0000    0    15.999   -8.063707    5.993134   -1.252435
   2 O     8.0000    0    15.999   -7.591030   -1.082265    1.183913
   3 O     8.0000    0    15.999   -4.211784    3.058749    0.903497
   4 O     8.0000    0    15.999  -11.383200    1.896019   -0.932485
   5 O     8.0000    0    15.999   -8.866255    3.599683    3.397765
   6 O     8.0000    0    15.999   -6.802712    1.362625   -3.465531
   7 H     1.0000    0     1.008   -8.605718    7.026984    0.208758
   8 H     1.0000    0     1.008   -7.510357   -1.026802    3.050831
   9 H     1.0000    0     1.008   -3.852188    1.986291    2.393055
  10 H     1.0000    0     1.008  -12.330198    3.325616   -0.183360
  11 H     1.0000    0     1.008   -7.458352    3.222153    4.568696
  12 H     1.0000    0     1.008   -5.782845    2.753577   -4.190014
  13 H     1.0000    0     1.008  -11.490385    2.193632   -2.776556
  14 H     1.0000    0     1.008   -6.313764    6.556197   -1.599691
  15 H     1.0000    0     1.008   -5.599882   -0.055823   -3.275802
  16 H     1.0000    0     1.008   -3.159036    2.327065   -0.456577
  17 H     1.0000    0     1.008   -5.909967   -1.725433    0.675917
  18 H     1.0000    0     1.008  -10.244451    2.449369    3.926284

--------------------------------
INTERNAL COORDINATES (ANGSTROEM)
--------------------------------
 V      0   0   0     0.000000000000     0.00000000     0.00000000
 O      1   0   0     1.981217942504     0.00000000     0.00000000
 O      1   2   0     1.986672739482   179.17514366     0.00000000
 O      1   2   3     1.988800283236    89.90637574   159.52274020
 O      1   2   4     1.976582809598    89.87463311   179.79662968
 O      1   2   5     1.986721760841    89.76481301   270.11876113
 O      1   2   5     1.986414462845    89.63599667    89.26341606
 H      2   1   5     0.989675610187   106.47629237    89.89332062
 H      3   1   5     0.989287391762   107.15390987   252.15022461
 H      4   1   2     0.989753268295   106.82718638   148.44978200
 H      5   1   2     0.990246168081   105.67579437   310.25009426
 H      6   1   2     0.989405420543   107.26221389   241.94203663
 H      7   1   2     0.989964567093   106.40177896    34.73163284
 H      5   1   2     0.990092906802   105.72711354    60.27092977
 H      2   1   5     0.989989626259   106.27102621   200.84737580
 H      7   1   2     0.989262610332   107.58219265   146.42192113
 H      4   1   2     0.989071404197   107.33907631   259.82652390
 H      3   1   5     0.989674133895   106.82455977   141.13237740
 H      6   1   2     0.990279766985   106.23975667   130.40618175

---------------------------
INTERNAL COORDINATES (A.U.)
---------------------------
 V      0   0   0     0.000000000000     0.00000000     0.00000000
 O      1   0   0     3.743959322944     0.00000000     0.00000000
 O      1   2   0     3.754267395348   179.17514366     0.00000000
 O      1   2   3     3.758287870381    89.90637574   159.52274020
 O      1   2   4     3.735200191158    89.87463311   179.79662968
 O      1   2   5     3.754360032292    89.76481301   270.11876113
 O      1   2   5     3.753779323237    89.63599667    89.26341606
 H      2   1   5     1.870215864676   106.47629237    89.89332062
 H      3   1   5     1.869482238172   107.15390987   252.15022461
 H      4   1   2     1.870362617230   106.82718638   148.44978200
 H      5   1   2     1.871294062839   105.67579437   310.25009426
 H      6   1   2     1.869705280244   107.26221389   241.94203663
 H      7   1   2     1.870761914092   106.40177896    34.73163284
 H      5   1   2     1.871004440994   105.72711354    60.27092977
 H      2   1   5     1.870809269052   106.27102621   200.84737580
 H      7   1   2     1.869435408055   107.58219265   146.42192113
 H      4   1   2     1.869074080825   107.33907631   259.82652390
 H      3   1   5     1.870213074886   106.82455977   141.13237740
 H      6   1   2     1.871357555565   106.23975667   130.40618175

---------------------
BASIS SET INFORMATION
---------------------
There are 3 groups of distinct atoms

 Group   1 Type V   : 14s9p5d1f contracted to 5s3p2d1f pattern {63311/531/41/1}
 Group   2 Type O   : 7s4p1d contracted to 3s2p1d pattern {511/31/1}
 Group   3 Type H   : 4s1p contracted to 2s1p pattern {31/1}

Atom   0V    basis set group =>   1
Atom   1O    basis set group =>   2
Atom   2O    basis set group =>   2
Atom   3O    basis set group =>   2
Atom   4O    basis set group =>   2
Atom   5O    basis set group =>   2
Atom   6O    basis set group =>   2
Atom   7H    basis set group =>   3
Atom   8H    basis set group =>   3
Atom   9H    basis set group =>   3
Atom  10H    basis set group =>   3
Atom  11H    basis set group =>   3
Atom  12H    basis set group =>   3
Atom  13H    basis set group =>   3
Atom  14H    basis set group =>   3
Atom  15H    basis set group =>   3
Atom  16H    basis set group =>   3
Atom  17H    basis set group =>   3
Atom  18H    basis set group =>   3
------------------------------------------------------------------------------
                           ORCA GTO INTEGRAL CALCULATION
------------------------------------------------------------------------------

                         BASIS SET STATISTICS AND STARTUP INFO

 # of primitive gaussian shells          ...  161
 # of primitive gaussian functions       ...  301
 # of contracted shells                  ...   83
 # of contracted basis functions         ...  175
 Highest angular momentum                ...    3
 Maximum contraction depth               ...    6
 Integral package used                   ... LIBINT
 Integral threshhold            Thresh   ...  2.500e-11
 Primitive cut-off              TCut     ...  2.500e-12


------------------------------ INTEGRAL EVALUATION ----------------------------


 * One electron integrals 
 Pre-screening matrix                    ... done
 Shell pair data                         ... done (   0.003 sec)

Timings:
 Total evaluation time               ...     0.005 sec (   0.000 min)
 One electron matrix time            ...     0.052 sec (   0.001 min) =1040.0%
 Schwartz matrix evaluation time     ...     0.240 sec (   0.004 min) =4800.0%

-------------------------------------------------------------------------------
                                 ORCA SCF
-------------------------------------------------------------------------------

------------
SCF SETTINGS
------------
Hamiltonian:
 Density Functional     Method          .... DFT(GTOs)
 Exchange Functional    Exchange        .... PBE
   PBE kappa parameter   XKappa         ....  0.804000
   PBE mue parameter    XMuePBE         ....  0.219520
 Correlation Functional Correlation     .... PBE
   PBE beta parameter  CBetaPBE         ....  0.066725
 LDA part of GGA corr.  LDAOpt          .... PW91-LDA
 Gradients option       PostSCFGGA      .... off
 Hybrid DFT is turned on
   Fraction HF Exchange ScalHFX         ....  0.250000
   Scaling of DF-GGA-X  ScalDFX         ....  0.750000
   Scaling of DF-GGA-C  ScalDFC         ....  1.000000
   Scaling of DF-LDA-C  ScalLDAC        ....  1.000000
   Perturbative correction              ....  0.000000
   Density functional embedding theory  .... OFF
   NL short-range parameter             ....  6.900000


General Settings:
 Integral files         IntName         .... vanadium_opt
 Hartree-Fock type      HFTyp           .... UHF
 Total Charge           Charge          ....    2
 Multiplicity           Mult            ....    4
 Number of Electrons    NEL             ....   81
 Basis Dimension        Dim             ....  175
 Nuclear Repulsion      ENuc            ....    664.4912616105 Eh

Convergence Acceleration:
 DIIS                   CNVDIIS         .... on
   Start iteration      DIISMaxIt       ....    12
   Startup error        DIISStart       ....  0.200000
   # of expansion vecs  DIISMaxEq       ....     5
   Bias factor          DIISBfac        ....   1.050
   Max. coefficient     DIISMaxC        ....  10.000
 Newton-Raphson         CNVNR           .... off
 SOSCF                  CNVSOSCF        .... off
 Level Shifting         CNVShift        .... on
   Level shift para.    LevelShift      ....    0.2500
   Turn off err/grad.   ShiftErr        ....    0.0010
 Zerner damping         CNVZerner       .... off
 Static damping         CNVDamp         .... on
   Fraction old density DampFac         ....    0.7000
   Max. Damping (<1)    DampMax         ....    0.9800
   Min. Damping (>=0)   DampMin         ....    0.0000
   Turn off err/grad.   DampErr         ....    0.1000
 Fernandez-Rico         CNVRico         .... off

SCF Procedure:
 Maximum # iterations   MaxIter         ....   125
 SCF integral mode      SCFMode         .... Direct
   Integral package                     .... LIBINT
 Reset frequency        DirectResetFreq ....    20
 Integral Threshold     Thresh          ....  2.500e-11 Eh
 Primitive CutOff       TCut            ....  2.500e-12 Eh

Convergence Tolerance:
 Convergence Check Mode ConvCheckMode   .... Total+1el-Energy
 Convergence forced     ConvForced      .... 0
 Energy Change          TolE            ....  1.000e-08 Eh
 1-El. energy change                    ....  1.000e-05 Eh
 DIIS Error             TolErr          ....  5.000e-07


Diagonalization of the overlap matrix:
Smallest eigenvalue                        ... 1.168e-02
Time for diagonalization                   ...    0.011 sec
Threshold for overlap eigenvalues          ... 1.000e-08
Number of eigenvalues below threshold      ... 0
Time for construction of square roots      ...    0.014 sec
Total time needed                          ...    0.026 sec

-------------------
DFT GRID GENERATION
-------------------

General Integration Accuracy     IntAcc      ...  4.340
Radial Grid Type                 RadialGrid  ... Gauss-Chebyshev
Angular Grid (max. acc.)         AngularGrid ... Lebedev-110
Angular grid pruning method      GridPruning ... 3 (G Style)
Weight generation scheme         WeightScheme... Becke
Basis function cutoff            BFCut       ...    1.0000e-11
Integration weight cutoff        WCut        ...    1.0000e-14
Grids for H and He will be reduced by one unit

# of grid points (after initial pruning)     ...  22796 (   0.0 sec)
# of grid points (after weights+screening)   ...  21013 (   0.1 sec)
nearest neighbour list constructed           ...    0.0 sec
Grid point re-assignment to atoms done       ...    0.0 sec
Grid point division into batches done        ...    0.0 sec
Reduced shell lists constructed in    0.3 sec

Total number of grid points                  ...    21013
Total number of batches                      ...      339
Average number of points per batch           ...       61
Average number of grid points per atom       ...     1106
Average number of shells per batch           ...    59.00 (71.08%)
Average number of basis functions per batch  ...   120.96 (69.12%)
Average number of large shells per batch     ...    44.29 (75.07%)
Average number of large basis fcns per batch ...    88.02 (72.77%)
Maximum spatial batch extension              ...  20.97, 16.68, 21.04 au
Average spatial batch extension              ...   3.48,  3.35,  3.42 au

Time for grid setup =    0.399 sec

------------------------------
INITIAL GUESS: MODEL POTENTIAL
------------------------------
Loading Hartree-Fock densities                     ... done
Calculating cut-offs                               ... done
Setting up the integral package                    ... done
Initializing the effective Hamiltonian             ... done
Starting the Coulomb interaction                   ... done (   0.2 sec)
Reading the grid                                   ... done
Mapping shells                                     ... done
Starting the XC term evaluation                    ... done (   0.4 sec)
  promolecular density results
     # of electrons  =     82.999783787
     EX              =    -96.663702449
     EC              =     -2.982172316
     EX+EC           =    -99.645874765
Transforming the Hamiltonian                       ... done (   0.0 sec)
Diagonalizing the Hamiltonian                      ... done (   0.0 sec)
Back transforming the eigenvectors                 ... done (   0.0 sec)
Now organizing SCF variables                       ... done
                      ------------------
                      INITIAL GUESS DONE (   1.3 sec)
                      ------------------
--------------
SCF ITERATIONS
--------------
ITER       Energy         Delta-E        Max-DP      RMS-DP      [F,P]     Damp
               ***  Starting incremental Fock matrix formation  ***
  0  -1400.5571281340   0.000000000000 0.03361073  0.00116231  0.2420692 0.7000
  1  -1400.7204891214  -0.163360987445 0.01980602  0.00068448  0.1124354 0.7000
                               ***Turning on DIIS***
  2  -1400.7812444136  -0.060755292137 0.02655612  0.00090308  0.0359666 0.0000
  3  -1400.8832019322  -0.101957518672 0.01266259  0.00047971  0.0573143 0.0000
  4  -1400.9031173399  -0.019915407652 0.00842466  0.00014421  0.0077577 0.0000
  5  -1400.9037732726  -0.000655932689 0.00348208  0.00005397  0.0025638 0.0000
  6  -1400.9038544843  -0.000081211712 0.00145690  0.00003510  0.0004059 0.0000
  7  -1400.9038684560  -0.000013971741 0.00034512  0.00000700  0.0005348 0.0000
  8  -1400.9038694839  -0.000001027900 0.00019687  0.00000409  0.0002782 0.0000
  9  -1400.9038698597  -0.000000375747 0.00008628  0.00000169  0.0000472 0.0000
 10  -1400.9038699135  -0.000000053786 0.00005057  0.00000093  0.0000162 0.0000
 11  -1400.9038699275  -0.000000014086 0.00001823  0.00000033  0.0000108 0.0000
 12  -1400.9038699309  -0.000000003350 0.00002201  0.00000031  0.0000081 0.0000
                 **** Energy Check signals convergence ****

               *****************************************************
               *                     SUCCESS                       *
               *           SCF CONVERGED AFTER  13 CYCLES          *
               *****************************************************

Setting up the final grid:

General Integration Accuracy     IntAcc      ...  4.670
Radial Grid Type                 RadialGrid  ... Gauss-Chebyshev
Angular Grid (max. acc.)         AngularGrid ... Lebedev-302
Angular grid pruning method      GridPruning ... 3 (G Style)
Weight generation scheme         WeightScheme... Becke
Basis function cutoff            BFCut       ...    1.0000e-11
Integration weight cutoff        WCut        ...    1.0000e-14
Grids for H and He will be reduced by one unit

# of grid points (after initial pruning)     ...  87664 (   0.1 sec)
# of grid points (after weights+screening)   ...  79604 (   0.4 sec)
nearest neighbour list constructed           ...    0.0 sec
Grid point re-assignment to atoms done       ...    0.0 sec
Grid point division into batches done        ...    0.3 sec
Reduced shell lists constructed in    1.3 sec

Total number of grid points                  ...    79604
Total number of batches                      ...     1254
Average number of points per batch           ...       63
Average number of grid points per atom       ...     4190
Average number of shells per batch           ...    53.91 (64.95%)
Average number of basis functions per batch  ...   108.73 (62.13%)
Average number of large shells per batch     ...    39.70 (73.64%)
Average number of large basis fcns per batch ...    77.67 (71.44%)
Maximum spatial batch extension              ...  16.56, 17.85, 17.91 au
Average spatial batch extension              ...   2.22,  2.24,  2.22 au

Final grid set up in    1.8 sec
Final integration                            ... done (   2.8 sec)
Change in XC energy                          ...     0.000276222
Integrated number of electrons               ...    80.999923248
Previous integrated no of electrons          ...    81.002690234

----------------
TOTAL SCF ENERGY
----------------

Total Energy       :        -1400.90359371 Eh          -38120.52479 eV

Components:
Nuclear Repulsion  :          664.49126161 Eh           18081.72649 eV
Electronic Energy  :        -2065.39485532 Eh          -56202.25128 eV
One Electron Energy:        -3223.16711963 Eh          -87706.83625 eV
Two Electron Energy:         1157.77226431 Eh           31504.58497 eV

Virial components:
Potential Energy   :        -2798.21645397 Eh          -76143.34077 eV
Kinetic Energy     :         1397.31286026 Eh           38022.81597 eV
Virial Ratio       :            2.00256974


DFT components:
N(Alpha)           :       41.999951337292 electrons
N(Beta)            :       38.999971910883 electrons
N(Total)           :       80.999923248175 electrons
E(X)               :      -73.015056574071 Eh       
E(C)               :       -2.956672448765 Eh       
E(XC)              :      -75.971729022836 Eh       
DFET-embed. en.    :        0.000000000000 Eh       

---------------
SCF CONVERGENCE
---------------

  Last Energy change         ...   -1.6144e-09  Tolerance :   1.0000e-08
  Last MAX-Density change    ...    1.6096e-05  Tolerance :   1.0000e-07
  Last RMS-Density change    ...    1.7538e-07  Tolerance :   5.0000e-09
  Last DIIS Error            ...    4.8219e-06  Tolerance :   5.0000e-07

             **** THE GBW FILE WAS UPDATED (vanadium_opt.gbw) ****
             **** DENSITY FILE WAS UPDATED (vanadium_opt.scfp) ****
             **** ENERGY FILE WAS UPDATED (vanadium_opt.en.tmp) ****
----------------------
UHF SPIN CONTAMINATION
----------------------

Warning: in a DFT calculation there is little theoretical justification to 
         calculate <S**2> as in Hartree-Fock theory. We will do it anyways
         but you should keep in mind that the values have only limited relevance

Expectation value of <S**2>     :     3.754417
Ideal value S*(S+1) for S=1.5   :     3.750000
Deviation                       :     0.004417

             **** THE GBW FILE WAS UPDATED (vanadium_opt.gbw) ****
             **** DENSITY FILE WAS UPDATED (vanadium_opt.scfp) ****
----------------
ORBITAL ENERGIES
----------------
                 SPIN UP ORBITALS
  NO   OCC          E(Eh)            E(eV) 
   0   1.0000    -197.310303     -5369.0863 
   1   1.0000     -22.554914      -613.7504 
   2   1.0000     -19.620471      -533.9001 
   3   1.0000     -19.608466      -533.5735 
   4   1.0000     -19.604815      -533.4741 
   5   1.0000     -19.603941      -533.4504 
   6   1.0000     -19.581526      -532.8404 
   7   1.0000     -19.564889      -532.3877 
   8   1.0000     -19.028779      -517.7994 
   9   1.0000     -19.028289      -517.7861 
  10   1.0000     -19.028234      -517.7846 
  11   1.0000      -2.942702       -80.0750 
  12   1.0000      -1.973992       -53.7150 
  13   1.0000      -1.972507       -53.6746 
  14   1.0000      -1.970601       -53.6228 
  15   1.0000      -1.428821       -38.8802 
  16   1.0000      -1.413558       -38.4649 
  17   1.0000      -1.406261       -38.2663 
  18   1.0000      -1.404755       -38.2253 
  19   1.0000      -1.384389       -37.6711 
  20   1.0000      -1.367696       -37.2169 
  21   1.0000      -0.950129       -25.8543 
  22   1.0000      -0.938851       -25.5474 
  23   1.0000      -0.926290       -25.2056 
  24   1.0000      -0.915481       -24.9115 
  25   1.0000      -0.901362       -24.5273 
  26   1.0000      -0.883774       -24.0487 
  27   1.0000      -0.840357       -22.8673 
  28   1.0000      -0.822472       -22.3806 
  29   1.0000      -0.815848       -22.2004 
  30   1.0000      -0.801132       -21.7999 
  31   1.0000      -0.794720       -21.6254 
  32   1.0000      -0.773842       -21.0573 
  33   1.0000      -0.760275       -20.6881 
  34   1.0000      -0.736422       -20.0391 
  35   1.0000      -0.727197       -19.7880 
  36   1.0000      -0.719692       -19.5838 
  37   1.0000      -0.701317       -19.0838 
  38   1.0000      -0.688451       -18.7337 
  39   1.0000      -0.502076       -13.6622 
  40   1.0000      -0.501443       -13.6449 
  41   1.0000      -0.489739       -13.3265 
  42   0.0000      -0.355697        -9.6790 
  43   0.0000      -0.298358        -8.1187 
  44   0.0000      -0.277776        -7.5587 
  45   0.0000      -0.264005        -7.1839 
  46   0.0000      -0.243881        -6.6363 
  47   0.0000      -0.238569        -6.4918 
  48   0.0000      -0.213492        -5.8094 
  49   0.0000      -0.211118        -5.7448 
  50   0.0000      -0.198498        -5.4014 
  51   0.0000      -0.193215        -5.2576 
  52   0.0000      -0.177276        -4.8239 
  53   0.0000      -0.164886        -4.4868 
  54   0.0000      -0.161470        -4.3938 
  55   0.0000      -0.154398        -4.2014 
  56   0.0000      -0.118783        -3.2322 
  57   0.0000      -0.006541        -0.1780 
  58   0.0000       0.008761         0.2384 
  59   0.0000       0.035075         0.9544 
  60   0.0000       0.044014         1.1977 
  61   0.0000       0.170251         4.6328 
  62   0.0000       0.194715         5.2985 
  63   0.0000       0.222179         6.0458 
  64   0.0000       0.245484         6.6800 
  65   0.0000       0.261743         7.1224 
  66   0.0000       0.263017         7.1571 
  67   0.0000       0.266509         7.2521 
  68   0.0000       0.284237         7.7345 
  69   0.0000       0.294771         8.0211 
  70   0.0000       0.321843         8.7578 
  71   0.0000       0.328024         8.9260 
  72   0.0000       0.359485         9.7821 
  73   0.0000       0.402120        10.9422 
  74   0.0000       0.406739        11.0679 
  75   0.0000       0.423615        11.5272 
  76   0.0000       0.571074        15.5397 
  77   0.0000       0.577033        15.7019 
  78   0.0000       0.612072        16.6553 
  79   0.0000       0.620317        16.8797 
  80   0.0000       0.638080        17.3630 
  81   0.0000       0.656759        17.8713 
  82   0.0000       0.659860        17.9557 
  83   0.0000       0.697717        18.9858 
  84   0.0000       0.710595        19.3363 
  85   0.0000       0.716169        19.4879 
  86   0.0000       0.733039        19.9470 
  87   0.0000       0.746948        20.3255 
  88   0.0000       0.755148        20.5486 
  89   0.0000       0.773503        21.0481 
  90   0.0000       0.783303        21.3148 
  91   0.0000       0.799897        21.7663 
  92   0.0000       0.814121        22.1534 
  93   0.0000       0.818996        22.2860 
  94   0.0000       0.866990        23.5920 
  95   0.0000       0.917923        24.9780 
  96   0.0000       0.948045        25.7976 
  97   0.0000       0.965560        26.2742 
  98   0.0000       0.975851        26.5543 
  99   0.0000       0.979963        26.6662 
 100   0.0000       1.001841        27.2615 
 101   0.0000       1.018428        27.7128 
 102   0.0000       1.032922        28.1072 
 103   0.0000       1.069439        29.1009 
 104   0.0000       1.122546        30.5460 
 105   0.0000       1.137098        30.9420 
 106   0.0000       1.154206        31.4076 
 107   0.0000       1.172907        31.9164 
 108   0.0000       1.205190        32.7949 
 109   0.0000       1.220385        33.2084 
 110   0.0000       1.242930        33.8219 
 111   0.0000       1.244600        33.8673 
 112   0.0000       1.286675        35.0122 
 113   0.0000       1.361297        37.0428 
 114   0.0000       1.390133        37.8274 
 115   0.0000       1.404340        38.2140 
 116   0.0000       1.410627        38.3851 
 117   0.0000       1.444867        39.3168 
 118   0.0000       1.477255        40.1982 
 119   0.0000       1.497876        40.7593 
 120   0.0000       1.575816        42.8801 
 121   0.0000       1.599506        43.5248 
 122   0.0000       1.611403        43.8485 
 123   0.0000       1.626979        44.2723 
 124   0.0000       1.643981        44.7350 
 125   0.0000       1.672009        45.4977 
 126   0.0000       1.789522        48.6954 
 127   0.0000       1.796303        48.8799 
 128   0.0000       1.803138        49.0659 
 129   0.0000       1.805221        49.1226 
 130   0.0000       1.813180        49.3391 
 131   0.0000       1.815737        49.4087 
 132   0.0000       1.833633        49.8957 
 133   0.0000       1.841796        50.1178 
 134   0.0000       1.852413        50.4067 
 135   0.0000       1.898506        51.6610 
 136   0.0000       1.906796        51.8865 
 137   0.0000       1.933883        52.6236 
 138   0.0000       1.959610        53.3237 
 139   0.0000       2.002004        54.4773 
 140   0.0000       2.072756        56.4026 
 141   0.0000       2.157792        58.7165 
 142   0.0000       2.251121        61.2561 
 143   0.0000       2.276527        61.9474 
 144   0.0000       2.299601        62.5753 
 145   0.0000       2.589769        70.4712 
 146   0.0000       2.599535        70.7369 
 147   0.0000       2.613503        71.1170 
 148   0.0000       2.621311        71.3295 
 149   0.0000       2.631994        71.6202 
 150   0.0000       2.659212        72.3608 
 151   0.0000       2.669459        72.6397 
 152   0.0000       2.697608        73.4056 
 153   0.0000       2.706474        73.6469 
 154   0.0000       2.717158        73.9376 
 155   0.0000       2.731001        74.3143 
 156   0.0000       2.742164        74.6181 
 157   0.0000       2.756561        75.0098 
 158   0.0000       2.774353        75.4940 
 159   0.0000       2.781315        75.6834 
 160   0.0000       2.791805        75.9689 
 161   0.0000       2.809467        76.4495 
 162   0.0000       2.842082        77.3370 
 163   0.0000       3.107010        84.5460 
 164   0.0000       3.147808        85.6562 
 165   0.0000       3.151087        85.7454 
 166   0.0000       3.160316        85.9966 
 167   0.0000       3.185077        86.6704 
 168   0.0000       3.203820        87.1804 
 169   0.0000       3.425006        93.1992 
 170   0.0000       3.453478        93.9739 
 171   0.0000       3.481251        94.7297 
 172   0.0000       3.504809        95.3707 
 173   0.0000       3.531383        96.0938 
 174   0.0000       3.535208        96.1979 

                 SPIN DOWN ORBITALS
  NO   OCC          E(Eh)            E(eV) 
   0   1.0000    -197.310063     -5369.0798 
   1   1.0000     -22.517956      -612.7447 
   2   1.0000     -19.620762      -533.9081 
   3   1.0000     -19.608678      -533.5793 
   4   1.0000     -19.605051      -533.4806 
   5   1.0000     -19.604147      -533.4560 
   6   1.0000     -19.581701      -532.8452 
   7   1.0000     -19.565047      -532.3920 
   8   1.0000     -18.997364      -516.9446 
   9   1.0000     -18.996670      -516.9257 
  10   1.0000     -18.996571      -516.9230 
  11   1.0000      -2.825552       -76.8872 
  12   1.0000      -1.847586       -50.2754 
  13   1.0000      -1.845555       -50.2201 
  14   1.0000      -1.843693       -50.1694 
  15   1.0000      -1.427813       -38.8528 
  16   1.0000      -1.412895       -38.4468 
  17   1.0000      -1.405545       -38.2468 
  18   1.0000      -1.403589       -38.1936 
  19   1.0000      -1.383345       -37.6427 
  20   1.0000      -1.366740       -37.1909 
  21   1.0000      -0.947390       -25.7798 
  22   1.0000      -0.935725       -25.4624 
  23   1.0000      -0.924494       -25.1568 
  24   1.0000      -0.914215       -24.8771 
  25   1.0000      -0.899536       -24.4776 
  26   1.0000      -0.881746       -23.9935 
  27   1.0000      -0.835727       -22.7413 
  28   1.0000      -0.819377       -22.2964 
  29   1.0000      -0.812918       -22.1206 
  30   1.0000      -0.798771       -21.7357 
  31   1.0000      -0.790928       -21.5223 
  32   1.0000      -0.770177       -20.9576 
  33   1.0000      -0.756526       -20.5861 
  34   1.0000      -0.732956       -19.9447 
  35   1.0000      -0.723745       -19.6941 
  36   1.0000      -0.716914       -19.5082 
  37   1.0000      -0.699038       -19.0218 
  38   1.0000      -0.685612       -18.6565 
  39   0.0000      -0.354415        -9.6441 
  40   0.0000      -0.298172        -8.1137 
  41   0.0000      -0.276607        -7.5269 
  42   0.0000      -0.261638        -7.1195 
  43   0.0000      -0.254070        -6.9136 
  44   0.0000      -0.248858        -6.7718 
  45   0.0000      -0.237555        -6.4642 
  46   0.0000      -0.231342        -6.2951 
  47   0.0000      -0.225442        -6.1346 
  48   0.0000      -0.205786        -5.5997 
  49   0.0000      -0.197530        -5.3751 
  50   0.0000      -0.179375        -4.8811 
  51   0.0000      -0.163576        -4.4511 
  52   0.0000      -0.160352        -4.3634 
  53   0.0000      -0.159024        -4.3273 
  54   0.0000      -0.157193        -4.2774 
  55   0.0000      -0.151816        -4.1311 
  56   0.0000      -0.116157        -3.1608 
  57   0.0000       0.023861         0.6493 
  58   0.0000       0.036660         0.9976 
  59   0.0000       0.061686         1.6786 
  60   0.0000       0.072531         1.9737 
  61   0.0000       0.190557         5.1853 
  62   0.0000       0.212207         5.7744 
  63   0.0000       0.228210         6.2099 
  64   0.0000       0.251764         6.8508 
  65   0.0000       0.265044         7.2122 
  66   0.0000       0.266598         7.2545 
  67   0.0000       0.269185         7.3249 
  68   0.0000       0.289351         7.8736 
  69   0.0000       0.298368         8.1190 
  70   0.0000       0.328346         8.9348 
  71   0.0000       0.332271         9.0415 
  72   0.0000       0.377351        10.2682 
  73   0.0000       0.446799        12.1580 
  74   0.0000       0.450380        12.2555 
  75   0.0000       0.458691        12.4816 
  76   0.0000       0.574260        15.6264 
  77   0.0000       0.580344        15.7920 
  78   0.0000       0.619292        16.8518 
  79   0.0000       0.626078        17.0364 
  80   0.0000       0.642095        17.4723 
  81   0.0000       0.660746        17.9798 
  82   0.0000       0.663079        18.0433 
  83   0.0000       0.699661        19.0388 
  84   0.0000       0.713206        19.4073 
  85   0.0000       0.718325        19.5466 
  86   0.0000       0.738567        20.0974 
  87   0.0000       0.750742        20.4287 
  88   0.0000       0.758112        20.6293 
  89   0.0000       0.775224        21.0949 
  90   0.0000       0.789124        21.4732 
  91   0.0000       0.801938        21.8218 
  92   0.0000       0.817082        22.2339 
  93   0.0000       0.823996        22.4221 
  94   0.0000       0.871030        23.7019 
  95   0.0000       0.923459        25.1286 
  96   0.0000       0.954627        25.9767 
  97   0.0000       0.969513        26.3818 
  98   0.0000       0.980991        26.6941 
  99   0.0000       0.984374        26.7862 
 100   0.0000       1.005598        27.3637 
 101   0.0000       1.025833        27.9143 
 102   0.0000       1.041391        28.3377 
 103   0.0000       1.075444        29.2643 
 104   0.0000       1.126731        30.6599 
 105   0.0000       1.142859        31.0988 
 106   0.0000       1.159327        31.5469 
 107   0.0000       1.180622        32.1264 
 108   0.0000       1.210668        32.9440 
 109   0.0000       1.226111        33.3642 
 110   0.0000       1.249536        34.0016 
 111   0.0000       1.260146        34.2903 
 112   0.0000       1.300572        35.3904 
 113   0.0000       1.373655        37.3791 
 114   0.0000       1.395342        37.9692 
 115   0.0000       1.412441        38.4345 
 116   0.0000       1.418391        38.5964 
 117   0.0000       1.452547        39.5258 
 118   0.0000       1.484143        40.3856 
 119   0.0000       1.505227        40.9593 
 120   0.0000       1.589291        43.2468 
 121   0.0000       1.609994        43.8102 
 122   0.0000       1.626816        44.2679 
 123   0.0000       1.635563        44.5059 
 124   0.0000       1.651853        44.9492 
 125   0.0000       1.681276        45.7498 
 126   0.0000       1.797614        48.9156 
 127   0.0000       1.804622        49.1063 
 128   0.0000       1.807049        49.1723 
 129   0.0000       1.814366        49.3714 
 130   0.0000       1.817578        49.4588 
 131   0.0000       1.821727        49.5717 
 132   0.0000       1.837244        49.9940 
 133   0.0000       1.848972        50.3131 
 134   0.0000       1.858735        50.5788 
 135   0.0000       1.952969        53.1430 
 136   0.0000       1.960951        53.3602 
 137   0.0000       2.025286        55.1108 
 138   0.0000       2.040025        55.5119 
 139   0.0000       2.073131        56.4128 
 140   0.0000       2.083035        56.6823 
 141   0.0000       2.201350        59.9018 
 142   0.0000       2.276924        61.9583 
 143   0.0000       2.302360        62.6504 
 144   0.0000       2.331334        63.4388 
 145   0.0000       2.591277        70.5122 
 146   0.0000       2.602242        70.8106 
 147   0.0000       2.618922        71.2645 
 148   0.0000       2.625182        71.4348 
 149   0.0000       2.638463        71.7962 
 150   0.0000       2.663214        72.4697 
 151   0.0000       2.673347        72.7455 
 152   0.0000       2.702665        73.5433 
 153   0.0000       2.710584        73.7587 
 154   0.0000       2.727821        74.2278 
 155   0.0000       2.739739        74.5521 
 156   0.0000       2.749192        74.8093 
 157   0.0000       2.760285        75.1112 
 158   0.0000       2.776690        75.5576 
 159   0.0000       2.786990        75.8379 
 160   0.0000       2.794303        76.0369 
 161   0.0000       2.811086        76.4935 
 162   0.0000       2.845182        77.4213 
 163   0.0000       3.108619        84.5898 
 164   0.0000       3.150771        85.7368 
 165   0.0000       3.154220        85.8307 
 166   0.0000       3.163260        86.0767 
 167   0.0000       3.187459        86.7352 
 168   0.0000       3.206674        87.2580 
 169   0.0000       3.425640        93.2164 
 170   0.0000       3.454150        93.9922 
 171   0.0000       3.482308        94.7584 
 172   0.0000       3.505482        95.3890 
 173   0.0000       3.532061        96.1123 
 174   0.0000       3.535835        96.2150 

                    ********************************
                    * MULLIKEN POPULATION ANALYSIS *
                    ********************************

--------------------------------------------
MULLIKEN ATOMIC CHARGES AND SPIN POPULATIONS
--------------------------------------------
   0 V :    0.457066    3.063440
   1 O :   -0.242726   -0.021911
   2 O :   -0.194911   -0.022091
   3 O :   -0.223540   -0.024191
   4 O :   -0.225894   -0.021499
   5 O :   -0.236684   -0.021826
   6 O :   -0.213086   -0.021723
   7 H :    0.262303    0.005478
   8 H :    0.218109    0.007421
   9 H :    0.228111    0.007063
  10 H :    0.238651    0.004576
  11 H :    0.239493    0.005454
  12 H :    0.244092    0.005737
  13 H :    0.265874    0.005040
  14 H :    0.246426    0.004235
  15 H :    0.233435    0.005594
  16 H :    0.224053    0.008024
  17 H :    0.220800    0.005834
  18 H :    0.258428    0.005346
Sum of atomic charges         :    2.0000000
Sum of atomic spin populations:    3.0000000

-----------------------------------------------------
MULLIKEN REDUCED ORBITAL CHARGES AND SPIN POPULATIONS
-----------------------------------------------------
CHARGE
  0 V s       :     6.274527  s :     6.274527
      pz      :     4.173443  p :    12.533637
      px      :     4.189601
      py      :     4.170593
      dz2     :     0.617447  d :     3.717719
      dxz     :     0.859989
      dyz     :     0.784502
      dx2y2   :     0.465955
      dxy     :     0.989826
      f0      :     0.002940  f :     0.017050
      f+1     :     0.002507
      f-1     :     0.002367
      f+2     :     0.002735
      f-2     :     0.000927
      f+3     :     0.002604
      f-3     :     0.002970
  1 O s       :     3.661802  s :     3.661802
      pz      :     1.575707  p :     4.571897
      px      :     1.397155
      py      :     1.599036
      dz2     :     0.002335  d :     0.009028
      dxz     :     0.000409
      dyz     :     0.002598
      dx2y2   :     0.002022
      dxy     :     0.001664
  2 O s       :     3.668139  s :     3.668139
      pz      :     1.298808  p :     4.516584
      px      :     1.462291
      py      :     1.755484
      dz2     :     0.004316  d :     0.010188
      dxz     :     0.001020
      dyz     :     0.000521
      dx2y2   :     0.002553
      dxy     :     0.001779
  3 O s       :     3.660534  s :     3.660534
      pz      :     1.257907  p :     4.553376
      px      :     1.626928
      py      :     1.668541
      dz2     :     0.000102  d :     0.009630
      dxz     :     0.001851
      dyz     :     0.004169
      dx2y2   :     0.001307
      dxy     :     0.002202
  4 O s       :     3.668712  s :     3.668712
      pz      :     1.295980  p :     4.547877
      px      :     1.661468
      py      :     1.590429
      dz2     :     0.002901  d :     0.009304
      dxz     :     0.000480
      dyz     :     0.001966
      dx2y2   :     0.001388
      dxy     :     0.002569
  5 O s       :     3.667022  s :     3.667022
      pz      :     1.569440  p :     4.560296
      px      :     1.293949
      py      :     1.696908
      dz2     :     0.000920  d :     0.009366
      dxz     :     0.002689
      dyz     :     0.001959
      dx2y2   :     0.000734
      dxy     :     0.003064
  6 O s       :     3.669204  s :     3.669204
      pz      :     1.736720  p :     4.534146
      px      :     1.524863
      py      :     1.272563
      dz2     :     0.001682  d :     0.009736
      dxz     :     0.001661
      dyz     :     0.000694
      dx2y2   :     0.000403
      dxy     :     0.005296
  7 H s       :     0.669050  s :     0.669050
      pz      :     0.030787  p :     0.068647
      px      :     0.017108
      py      :     0.020752
  8 H s       :     0.711456  s :     0.711456
      pz      :     0.038474  p :     0.070435
      px      :     0.015460
      py      :     0.016500
  9 H s       :     0.702531  s :     0.702531
      pz      :     0.031185  p :     0.069358
      px      :     0.015834
      py      :     0.022339
 10 H s       :     0.692139  s :     0.692139
      pz      :     0.019093  p :     0.069210
      px      :     0.021510
      py      :     0.028607
 11 H s       :     0.691187  s :     0.691187
      pz      :     0.023690  p :     0.069321
      px      :     0.029341
      py      :     0.016290
 12 H s       :     0.686713  s :     0.686713
      pz      :     0.019929  p :     0.069195
      px      :     0.019889
      py      :     0.029377
 13 H s       :     0.665431  s :     0.665431
      pz      :     0.039695  p :     0.068694
      px      :     0.014093
      py      :     0.014907
 14 H s       :     0.684748  s :     0.684748
      pz      :     0.016492  p :     0.068826
      px      :     0.036150
      py      :     0.016184
 15 H s       :     0.696857  s :     0.696857
      pz      :     0.016293  p :     0.069708
      px      :     0.023006
      py      :     0.030409
 16 H s       :     0.706408  s :     0.706408
      pz      :     0.028590  p :     0.069538
      px      :     0.022712
      py      :     0.018236
 17 H s       :     0.709237  s :     0.709237
      pz      :     0.017218  p :     0.069963
      px      :     0.033047
      py      :     0.019698
 18 H s       :     0.672989  s :     0.672989
      pz      :     0.015138  p :     0.068583
      px      :     0.029640
      py      :     0.023805

SPIN
  0 V s       :     0.044473  s :     0.044473
      pz      :     0.020314  p :     0.059563
      px      :     0.020395
      py      :     0.018854
      dz2     :     0.432151  d :     2.958585
      dxz     :     0.742178
      dyz     :     0.655953
      dx2y2   :     0.220449
      dxy     :     0.907854
      f0      :     0.000123  f :     0.000818
      f+1     :     0.000124
      f-1     :     0.000115
      f+2     :     0.000132
      f-2     :     0.000054
      f+3     :     0.000116
      f-3     :     0.000154
  1 O s       :    -0.004337  s :    -0.004337
      pz      :    -0.000513  p :    -0.018653
      px      :    -0.000307
      py      :    -0.017833
      dz2     :     0.000030  d :     0.001080
      dxz     :     0.000025
      dyz     :     0.000443
      dx2y2   :     0.000049
      dxy     :     0.000533
  2 O s       :    -0.004508  s :    -0.004508
      pz      :    -0.004478  p :    -0.018714
      px      :    -0.001204
      py      :    -0.013032
      dz2     :     0.000368  d :     0.001131
      dxz     :     0.000056
      dyz     :     0.000240
      dx2y2   :     0.000070
      dxy     :     0.000396
  3 O s       :    -0.004784  s :    -0.004784
      pz      :    -0.003766  p :    -0.020631
      px      :    -0.016538
      py      :    -0.000327
      dz2     :     0.000094  d :     0.001224
      dxz     :     0.000619
      dyz     :     0.000055
      dx2y2   :     0.000026
      dxy     :     0.000430
  4 O s       :    -0.004002  s :    -0.004002
      pz      :    -0.002926  p :    -0.018508
      px      :    -0.017728
      py      :     0.002146
      dz2     :     0.000224  d :     0.001011
      dxz     :     0.000352
      dyz     :     0.000018
      dx2y2   :    -0.000007
      dxy     :     0.000424
  5 O s       :    -0.004547  s :    -0.004547
      pz      :    -0.015786  p :    -0.018446
      px      :    -0.003220
      py      :     0.000560
      dz2     :     0.000156  d :     0.001167
      dxz     :     0.000594
      dyz     :     0.000347
      dx2y2   :     0.000027
      dxy     :     0.000043
  6 O s       :    -0.004631  s :    -0.004631
      pz      :    -0.013512  p :    -0.018235
      px      :    -0.001876
      py      :    -0.002848
      dz2     :     0.000250  d :     0.001143
      dxz     :     0.000202
      dyz     :     0.000364
      dx2y2   :     0.000078
      dxy     :     0.000249
  7 H s       :     0.005460  s :     0.005460
      pz      :     0.000018  p :     0.000018
      px      :     0.000176
      py      :    -0.000176
  8 H s       :     0.007487  s :     0.007487
      pz      :    -0.000134  p :    -0.000066
      px      :     0.000158
      py      :    -0.000090
  9 H s       :     0.007050  s :     0.007050
      pz      :    -0.000023  p :     0.000014
      px      :    -0.000015
      py      :     0.000051
 10 H s       :     0.004505  s :     0.004505
      pz      :     0.000174  p :     0.000071
      px      :    -0.000179
      py      :     0.000076
 11 H s       :     0.005374  s :     0.005374
      pz      :    -0.000136  p :     0.000080
      px      :     0.000092
      py      :     0.000124
 12 H s       :     0.005648  s :     0.005648
      pz      :    -0.000093  p :     0.000089
      px      :     0.000049
      py      :     0.000133
 13 H s       :     0.005005  s :     0.005005
      pz      :    -0.000032  p :     0.000035
      px      :    -0.000070
      py      :     0.000137
 14 H s       :     0.004149  s :     0.004149
      pz      :     0.000105  p :     0.000086
      px      :     0.000054
      py      :    -0.000074
 15 H s       :     0.005525  s :     0.005525
      pz      :    -0.000037  p :     0.000069
      px      :     0.000056
      py      :     0.000050
 16 H s       :     0.008119  s :     0.008119
      pz      :    -0.000001  p :    -0.000095
      px      :    -0.000172
      py      :     0.000078
 17 H s       :     0.005814  s :     0.005814
      pz      :     0.000156  p :     0.000021
      px      :    -0.000033
      py      :    -0.000102
 18 H s       :     0.005234  s :     0.005234
      pz      :    -0.000030  p :     0.000111
      px      :     0.000043
      py      :     0.000098


                     *******************************
                     * LOEWDIN POPULATION ANALYSIS *
                     *******************************

-------------------------------------------
LOEWDIN ATOMIC CHARGES AND SPIN POPULATIONS
-------------------------------------------
   0 V :    0.012418    2.939889
   1 O :    0.039939   -0.001363
   2 O :    0.063722   -0.002040
   3 O :    0.046555   -0.002758
   4 O :    0.050714   -0.001081
   5 O :    0.052238   -0.001520
   6 O :    0.064141   -0.001493
   7 H :    0.149431    0.005661
   8 H :    0.128502    0.006875
   9 H :    0.132390    0.006926
  10 H :    0.139898    0.004798
  11 H :    0.138289    0.005750
  12 H :    0.142658    0.005732
  13 H :    0.153327    0.005247
  14 H :    0.140632    0.004988
  15 H :    0.135065    0.005731
  16 H :    0.131269    0.007416
  17 H :    0.128578    0.005905
  18 H :    0.150234    0.005335

----------------------------------------------------
LOEWDIN REDUCED ORBITAL CHARGES AND SPIN POPULATIONS
----------------------------------------------------
CHARGE
  0 V s       :     6.240033  s :     6.240033
      pz      :     4.205272  p :    12.631499
      px      :     4.210394
      py      :     4.215833
      dz2     :     0.715093  d :     4.079387
      dxz     :     0.901477
      dyz     :     0.851448
      dx2y2   :     0.592809
      dxy     :     1.018560
      f0      :     0.006335  f :     0.036663
      f+1     :     0.005394
      f-1     :     0.004966
      f+2     :     0.005983
      f-2     :     0.001819
      f+3     :     0.005593
      f-3     :     0.006573
  1 O s       :     3.366051  s :     3.366051
      pz      :     1.573379  p :     4.576402
      px      :     1.425607
      py      :     1.577416
      dz2     :     0.003942  d :     0.017608
      dxz     :     0.000825
      dyz     :     0.005136
      dx2y2   :     0.004424
      dxy     :     0.003281
  2 O s       :     3.373904  s :     3.373904
      pz      :     1.345420  p :     4.542863
      px      :     1.498606
      py      :     1.698836
      dz2     :     0.009877  d :     0.019511
      dxz     :     0.001440
      dyz     :     0.000854
      dx2y2   :     0.004365
      dxy     :     0.002975
  3 O s       :     3.369918  s :     3.369918
      pz      :     1.296593  p :     4.564725
      px      :     1.598310
      py      :     1.669823
      dz2     :     0.001140  d :     0.018802
      dxz     :     0.004966
      dyz     :     0.008188
      dx2y2   :     0.001498
      dxy     :     0.003010
  4 O s       :     3.368539  s :     3.368539
      pz      :     1.331833  p :     4.562862
      px      :     1.623162
      py      :     1.607866
      dz2     :     0.007010  d :     0.017885
      dxz     :     0.001381
      dyz     :     0.003306
      dx2y2   :     0.001710
      dxy     :     0.004478
  5 O s       :     3.366874  s :     3.366874
      pz      :     1.555000  p :     4.562673
      px      :     1.325110
      py      :     1.682563
      dz2     :     0.001728  d :     0.018215
      dxz     :     0.006776
      dyz     :     0.002495
      dx2y2   :     0.001244
      dxy     :     0.005972
  6 O s       :     3.369613  s :     3.369613
      pz      :     1.683031  p :     4.547395
      px      :     1.553117
      py      :     1.311247
      dz2     :     0.003252  d :     0.018851
      dxz     :     0.002127
      dyz     :     0.002076
      dx2y2   :     0.000226
      dxy     :     0.011170
  7 H s       :     0.682414  s :     0.682414
      pz      :     0.076179  p :     0.168155
      px      :     0.034178
      py      :     0.057799
  8 H s       :     0.702527  s :     0.702527
      pz      :     0.092404  p :     0.168971
      px      :     0.032829
      py      :     0.043738
  9 H s       :     0.699101  s :     0.699101
      pz      :     0.066232  p :     0.168509
      px      :     0.041534
      py      :     0.060743
 10 H s       :     0.692563  s :     0.692563
      pz      :     0.035286  p :     0.167539
      px      :     0.057327
      py      :     0.074926
 11 H s       :     0.693403  s :     0.693403
      pz      :     0.063032  p :     0.168308
      px      :     0.062548
      py      :     0.042728
 12 H s       :     0.689192  s :     0.689192
      pz      :     0.052872  p :     0.168149
      px      :     0.053498
      py      :     0.061779
 13 H s       :     0.679244  s :     0.679244
      pz      :     0.091355  p :     0.167428
      px      :     0.039103
      py      :     0.036969
 14 H s       :     0.691684  s :     0.691684
      pz      :     0.037171  p :     0.167684
      px      :     0.086603
      py      :     0.043909
 15 H s       :     0.696541  s :     0.696541
      pz      :     0.043425  p :     0.168394
      px      :     0.061452
      py      :     0.063517
 16 H s       :     0.699512  s :     0.699512
      pz      :     0.059533  p :     0.169218
      px      :     0.060453
      py      :     0.049233
 17 H s       :     0.703020  s :     0.703020
      pz      :     0.031226  p :     0.168402
      px      :     0.085269
      py      :     0.051907
 18 H s       :     0.681565  s :     0.681565
      pz      :     0.041255  p :     0.168201
      px      :     0.062439
      py      :     0.064508

SPIN
  0 V s       :     0.011980  s :     0.011980
      pz      :     0.007447  p :     0.021767
      px      :     0.007256
      py      :     0.007065
      dz2     :     0.422449  d :     2.905543
      dxz     :     0.731136
      dyz     :     0.645025
      dx2y2   :     0.211937
      dxy     :     0.894997
      f0      :     0.000078  f :     0.000599
      f+1     :     0.000101
      f-1     :     0.000073
      f+2     :     0.000099
      f-2     :     0.000037
      f+3     :     0.000081
      f-3     :     0.000130
  1 O s       :    -0.000800  s :    -0.000800
      pz      :     0.003378  p :    -0.003003
      px      :     0.003029
      py      :    -0.009411
      dz2     :     0.000124  d :     0.002440
      dxz     :     0.000147
      dyz     :     0.000940
      dx2y2   :     0.000174
      dxy     :     0.001055
  2 O s       :    -0.000594  s :    -0.000594
      pz      :    -0.000967  p :    -0.004127
      px      :     0.002511
      py      :    -0.005671
      dz2     :     0.000964  d :     0.002681
      dxz     :     0.000073
      dyz     :     0.000475
      dx2y2   :     0.000206
      dxy     :     0.000963
  3 O s       :    -0.000326  s :    -0.000326
      pz      :    -0.000904  p :    -0.005333
      px      :    -0.008381
      py      :     0.003951
      dz2     :     0.000224  d :     0.002901
      dxz     :     0.001345
      dyz     :     0.000256
      dx2y2   :     0.000146
      dxy     :     0.000930
  4 O s       :    -0.000512  s :    -0.000512
      pz      :     0.000650  p :    -0.002869
      px      :    -0.009809
      py      :     0.006290
      dz2     :     0.000572  d :     0.002301
      dxz     :     0.000686
      dyz     :     0.000046
      dx2y2   :     0.000041
      dxy     :     0.000956
  5 O s       :    -0.000868  s :    -0.000868
      pz      :    -0.008294  p :    -0.003268
      px      :     0.000227
      py      :     0.004800
      dz2     :     0.000370  d :     0.002616
      dxz     :     0.001273
      dyz     :     0.000650
      dx2y2   :     0.000125
      dxy     :     0.000198
  6 O s       :    -0.000835  s :    -0.000835
      pz      :    -0.005951  p :    -0.003245
      px      :     0.002419
      py      :     0.000288
      dz2     :     0.000551  d :     0.002586
      dxz     :     0.000521
      dyz     :     0.000747
      dx2y2   :     0.000091
      dxy     :     0.000675
  7 H s       :     0.005736  s :     0.005736
      pz      :    -0.000029  p :    -0.000075
      px      :     0.000189
      py      :    -0.000235
  8 H s       :     0.006926  s :     0.006926
      pz      :    -0.000111  p :    -0.000051
      px      :     0.000219
      py      :    -0.000159
  9 H s       :     0.006853  s :     0.006853
      pz      :    -0.000194  p :     0.000073
      px      :    -0.000027
      py      :     0.000294
 10 H s       :     0.004812  s :     0.004812
      pz      :     0.000106  p :    -0.000014
      px      :    -0.000323
      py      :     0.000204
 11 H s       :     0.005751  s :     0.005751
      pz      :    -0.000237  p :    -0.000000
      px      :    -0.000034
      py      :     0.000271
 12 H s       :     0.005635  s :     0.005635
      pz      :    -0.000160  p :     0.000097
      px      :     0.000214
      py      :     0.000043
 13 H s       :     0.005285  s :     0.005285
      pz      :    -0.000166  p :    -0.000037
      px      :    -0.000154
      py      :     0.000283
 14 H s       :     0.004989  s :     0.004989
      pz      :     0.000142  p :    -0.000001
      px      :     0.000007
      py      :    -0.000150
 15 H s       :     0.005721  s :     0.005721
      pz      :    -0.000120  p :     0.000009
      px      :     0.000248
      py      :    -0.000118
 16 H s       :     0.007457  s :     0.007457
      pz      :    -0.000118  p :    -0.000041
      px      :    -0.000177
      py      :     0.000254
 17 H s       :     0.005880  s :     0.005880
      pz      :     0.000086  p :     0.000025
      px      :     0.000136
      py      :    -0.000196
 18 H s       :     0.005277  s :     0.005277
      pz      :    -0.000061  p :     0.000058
      px      :    -0.000093
      py      :     0.000212


                      *****************************
                      * MAYER POPULATION ANALYSIS *
                      *****************************

  NA   - Mulliken gross atomic population
  ZA   - Total nuclear charge
  QA   - Mulliken gross atomic charge
  VA   - Mayer's total valence
  BVA  - Mayer's bonded valence
  FA   - Mayer's free valence

  ATOM       NA         ZA         QA         VA         BVA        FA
  0 V     22.5429    23.0000     0.4571     5.6606     2.8525     2.8081
  1 O      8.2427     8.0000    -0.2427     2.3290     2.3285     0.0005
  2 O      8.1949     8.0000    -0.1949     2.3405     2.3400     0.0004
  3 O      8.2235     8.0000    -0.2235     2.3131     2.3127     0.0004
  4 O      8.2259     8.0000    -0.2259     2.3527     2.3522     0.0006
  5 O      8.2367     8.0000    -0.2367     2.3378     2.3373     0.0005
  6 O      8.2131     8.0000    -0.2131     2.3506     2.3502     0.0005
  7 H      0.7377     1.0000     0.2623     0.9568     0.9567     0.0000
  8 H      0.7819     1.0000     0.2181     0.9967     0.9966     0.0001
  9 H      0.7719     1.0000     0.2281     0.9895     0.9895     0.0001
 10 H      0.7613     1.0000     0.2387     0.9688     0.9688     0.0000
 11 H      0.7605     1.0000     0.2395     0.9732     0.9731     0.0000
 12 H      0.7559     1.0000     0.2441     0.9685     0.9685     0.0000
 13 H      0.7341     1.0000     0.2659     0.9515     0.9514     0.0000
 14 H      0.7536     1.0000     0.2464     0.9660     0.9659     0.0000
 15 H      0.7666     1.0000     0.2334     0.9759     0.9759     0.0000
 16 H      0.7759     1.0000     0.2241     0.9960     0.9959     0.0001
 17 H      0.7792     1.0000     0.2208     0.9883     0.9882     0.0000
 18 H      0.7416     1.0000     0.2584     0.9592     0.9591     0.0000

  Mayer bond orders larger than 0.100000
B(  0-V ,  1-O ) :   0.4628 B(  0-V ,  2-O ) :   0.4345 B(  0-V ,  3-O ) :   0.4213 
B(  0-V ,  4-O ) :   0.4783 B(  0-V ,  5-O ) :   0.4356 B(  0-V ,  6-O ) :   0.4410 
B(  1-O ,  7-H ) :   0.9220 B(  1-O , 14-H ) :   0.9325 B(  2-O ,  8-H ) :   0.9396 
B(  2-O , 17-H ) :   0.9415 B(  3-O ,  9-H ) :   0.9355 B(  3-O , 16-H ) :   0.9347 
B(  4-O , 10-H ) :   0.9384 B(  4-O , 13-H ) :   0.9220 B(  5-O , 11-H ) :   0.9378 
B(  5-O , 18-H ) :   0.9273 B(  6-O , 12-H ) :   0.9339 B(  6-O , 15-H ) :   0.9400 


-------
TIMINGS
-------

Total SCF time: 0 days 0 hours 2 min 16 sec 

Total time                  ....     136.471 sec
Sum of individual times     ....     135.595 sec  ( 99.4%)

Fock matrix formation       ....     132.085 sec  ( 96.8%)
  XC integration            ....      14.098 sec  ( 10.7% of F)
    Basis function eval.    ....       2.954 sec  ( 21.0% of XC)
    Density eval.           ....       4.242 sec  ( 30.1% of XC)
    XC-Functional eval.     ....       0.510 sec  (  3.6% of XC)
    XC-Potential eval.      ....       5.357 sec  ( 38.0% of XC)
Diagonalization             ....       0.302 sec  (  0.2%)
Density matrix formation    ....       0.021 sec  (  0.0%)
Population analysis         ....       0.035 sec  (  0.0%)
Initial guess               ....       0.864 sec  (  0.6%)
Orbital Transformation      ....       0.000 sec  (  0.0%)
Orbital Orthonormalization  ....       0.000 sec  (  0.0%)
DIIS solution               ....       0.105 sec  (  0.1%)
Grid generation             ....       2.183 sec  (  1.6%)


-------------------------------------------------------------------------------
                          DFT DISPERSION CORRECTION                            
                                                                               
                              DFTD3 V3.1  Rev 1                                
                          USING Becke-Johnson damping                          
-------------------------------------------------------------------------------
The PBE0 functional is recognized
Active option DFTDOPT                   ...         4   

molecular C6(AA) [au] = 3097.012901 


            DFT-D V3
 parameters
 s6 scaling factor         :     1.0000 
 a1 scaling factor         :     0.4145 
 s8 scaling factor         :     1.2177 
 a2 scaling factor         :     4.8593 
 ad hoc parameters k1-k3   :    16.0000     1.3333    -4.0000 

 Edisp/kcal,au: -9.323017109418  -0.014857171884 
 E6   /kcal   :  -5.772247362 
 E8   /kcal   :  -3.550769748 
 % E8         :  38.086058472 

-------------------------   ----------------
Dispersion correction           -0.014857172
-------------------------   ----------------


-------------------------   --------------------
FINAL SINGLE POINT ENERGY     -1400.918450882475
-------------------------   --------------------

------------------------------------------------------------------------------
                         ORCA SCF GRADIENT CALCULATION
------------------------------------------------------------------------------

Gradient of the Kohn-Sham DFT energy:
Kohn-Sham wavefunction type      ... UKS
Hartree-Fock exchange scaling    ...    0.250
Number of operators              ...    2
Number of atoms                  ...   19
Basis set dimensions             ...  175
Integral neglect threshold       ... 2.5e-11
Integral primitive cutoff        ... 2.5e-12

Nuclear repulsion gradient       ... done
One Electron Gradient            ... done
Pre-screening matrix             ... done
Starting the two electron gradient:
Two electron gradient done
Exchange-correlation gradient    ... done
Dispersion correction            ... done

------------------
CARTESIAN GRADIENT
------------------

   1   V   :    0.017784143   -0.001309165    0.009144440
   2   O   :   -0.017730152   -0.037171951   -0.006473140
   3   O   :   -0.031891253    0.023214151   -0.025215263
   4   O   :   -0.037726373    0.024424690   -0.007153006
   5   O   :    0.031578563   -0.024826243    0.013945273
   6   O   :    0.002257471    0.019742133   -0.039949188
   7   O   :   -0.041363705    0.003869612    0.019213122
   8   H   :   -0.004430443    0.000324137    0.017118251
   9   H   :    0.003574715    0.016502214    0.017275178
  10   H   :   -0.011322499   -0.016211540    0.013525196
  11   H   :    0.001950864    0.017510055    0.013735446
  12   H   :    0.020748030   -0.014282926   -0.000093167
  13   H   :    0.011966765    0.018152334    0.007802702
  14   H   :    0.007734381    0.007111453   -0.014984021
  15   H   :    0.021107516   -0.007590966   -0.002370422
  16   H   :    0.014941782   -0.009314174    0.018880843
  17   H   :   -0.002802978   -0.012161368   -0.018437990
  18   H   :    0.021077329    0.009069123   -0.010708539
  19   H   :   -0.007454156   -0.017051569   -0.005255716

Difference to translation invariance:
           :    0.0000000002   -0.0000000001    0.0000000000

Norm of the cartesian gradient     ...    0.1358480218
RMS gradient                       ...    0.0179935100
MAX gradient                       ...    0.0413637046

-------
TIMINGS
-------

Total SCF gradient time            ...       53.814 sec

One electron gradient       ....       0.325 sec  (  0.6%)
Prescreening matrices       ....       0.937 sec  (  1.7%)
Two electron gradient       ....      35.405 sec  ( 65.8%)
XC gradient                 ....      16.652 sec  ( 30.9%)
------------------------------------------------------------------------------
                         ORCA GEOMETRY RELAXATION STEP
[...]
     50      -0.203828   0.307901   0.239668  -0.115231   0.007889   0.213140
     51      -0.279134  -0.041764  -0.151969  -0.288051   0.432840  -0.005314
     52      -0.383253  -0.057844  -0.207107   0.178389  -0.269367   0.003990
     53       0.013184   0.002117   0.006716  -0.128601   0.193573  -0.002570
     54       0.028770   0.074850  -0.068773  -0.029140   0.002358  -0.057912
     55      -0.102134  -0.274486   0.250614  -0.116074   0.011429  -0.228741
     56      -0.076092  -0.206177   0.186374   0.125737  -0.010477   0.249462
                 48         49         50         51         52         53    
      0       0.000163   0.000142  -0.000001  -0.000001   0.000007   0.000001
      1       0.000041  -0.000040   0.000001  -0.000000   0.000004  -0.000000
      2       0.000133  -0.000158  -0.000001  -0.000000   0.000002  -0.000000
      3       0.000089   0.000037  -0.000049  -0.037230  -0.057330  -0.003460
      4       0.000483   0.000131  -0.017942  -0.002546  -0.003916  -0.000289
      5      -0.000091  -0.000027   0.004443  -0.010391  -0.015993  -0.001141
      6       0.000091   0.000028   0.000046   0.057488  -0.037229  -0.001668
      7       0.001049  -0.000137   0.018130   0.003819  -0.002477  -0.000064
      8      -0.000230   0.000040  -0.004465   0.015943  -0.010335  -0.000288
      9       0.030889   0.015083  -0.020726  -0.000370  -0.000405  -0.000686
     10       0.002438   0.001164  -0.001634   0.000129   0.000421   0.000607
     11       0.008540   0.004073  -0.005762   0.001162   0.001731   0.002331
     12       0.030555   0.013735   0.020596   0.000395   0.000161   0.000569
     13       0.002484   0.001088   0.001672  -0.000198  -0.000007  -0.000496
     14       0.008498   0.003717   0.005762  -0.001381  -0.000188  -0.001875
     15      -0.004226   0.009268   0.006153   0.000026  -0.000031  -0.000505
     16       0.003525  -0.007749  -0.005158   0.000462   0.003484  -0.046911
     17       0.013884  -0.030406  -0.020228  -0.000117  -0.000894   0.011840
     18      -0.004330   0.009018  -0.006220   0.000009  -0.000084   0.000157
     19       0.003405  -0.007108   0.004896  -0.000435  -0.002123   0.050494
     20       0.013980  -0.029065   0.020106   0.000108   0.000511  -0.012429
     21       0.004445   0.000893  -0.203827   0.297136   0.457794   0.027543
     22      -0.001348   0.000106   0.127073  -0.201808  -0.310595  -0.018630
     23       0.001399   0.000749  -0.091895   0.138038   0.212507   0.014188
     24      -0.013220   0.001040  -0.206707  -0.455590   0.295203   0.013201
     25      -0.011469   0.000420  -0.157750  -0.373234   0.241658   0.010201
     26      -0.001307   0.000710  -0.021771  -0.041750   0.027189  -0.000022
     27      -0.146046  -0.068944   0.097360  -0.004053  -0.007116  -0.008840
     28      -0.110764  -0.053486   0.073395  -0.001451  -0.004680  -0.005623
     29      -0.417854  -0.201775   0.276957  -0.010459  -0.018556  -0.022457
     30      -0.343804  -0.157177  -0.229944  -0.011183  -0.003612  -0.016092
     31       0.072845   0.032863   0.048385   0.000914   0.000436   0.003409
     32       0.277335   0.125033   0.184014   0.008568   0.002986   0.011883
     33       0.031378  -0.070019  -0.046028   0.000906   0.006415  -0.077179
     34      -0.196980   0.431670   0.283549  -0.004272  -0.032794   0.441246
     35      -0.068034   0.148761   0.098573  -0.001640  -0.012625   0.171945
     36       0.035022  -0.073976   0.050577   0.000996   0.004528  -0.090216
     37       0.142698  -0.296703   0.202315   0.002847   0.013883  -0.327854
     38      -0.154487   0.320886  -0.219989  -0.003257  -0.016015   0.384180
     39      -0.144038  -0.062410  -0.096467   0.005111   0.000064   0.007014
     40      -0.112668  -0.050011  -0.075005   0.002323  -0.000346   0.004484
     41      -0.413376  -0.183482  -0.275259   0.013399  -0.000277   0.017855
     42      -0.006650  -0.002116   0.204590   0.293985   0.452921   0.027482
     43      -0.006527  -0.002011   0.156991   0.242136   0.372673   0.023205
     44      -0.000612   0.000396   0.021599   0.026937   0.041520   0.003772
     45       0.033285  -0.070485   0.048098  -0.001181  -0.003078   0.087701
     46      -0.197144   0.410186  -0.279848   0.004087   0.019844  -0.473986
     47      -0.068940   0.143140  -0.098472   0.001515   0.007965  -0.186809
     48      -0.347137  -0.172081   0.231109   0.010151   0.012560   0.019673
     49       0.071691   0.035121  -0.047401  -0.000684  -0.002067  -0.004050
     50       0.281142   0.137660  -0.185711  -0.007923  -0.009191  -0.014554
     51       0.010978  -0.002143   0.205985  -0.457380   0.296325   0.013241
     52      -0.005428   0.002018  -0.129317   0.312698  -0.202375  -0.009110
     53       0.004309  -0.000627   0.092415  -0.211409   0.136977   0.004727
     54       0.035253  -0.078426  -0.051552  -0.001338  -0.005804   0.085223
     55       0.140627  -0.307972  -0.201852  -0.003099  -0.022537   0.303704
     56      -0.153867   0.336644   0.221847   0.003494   0.026887  -0.359907
                  54         55         56    
      0      -0.000001  -0.000000   0.000006
      1       0.000001  -0.000007  -0.000003
      2       0.000002   0.000003  -0.000005
      3      -0.002428   0.000975   0.000209
      4      -0.000164  -0.000037   0.000038
      5      -0.000708   0.000300   0.000129
      6       0.000472   0.000506   0.000903
      7       0.000014  -0.000057   0.000077
      8       0.000120   0.000151   0.000325
      9       0.017076   0.000273  -0.009401
     10      -0.015138  -0.000167   0.008351
     11      -0.057967  -0.000939   0.031973
     12      -0.009461   0.001182  -0.017150
     13       0.008559  -0.000983   0.015532
     14       0.031834  -0.003946   0.057795
     15      -0.000192   0.000553   0.000010
     16      -0.001153   0.050460   0.002549
     17       0.000306  -0.012731  -0.000737
     18       0.000170   0.000149   0.000095
     19       0.002974   0.046995   0.003162
     20      -0.000700  -0.011556  -0.000870
     21       0.019525  -0.009864  -0.001602
     22      -0.013257   0.006459   0.001045
     23       0.008981  -0.004521  -0.001505
     24      -0.003492  -0.002119  -0.007052
     25      -0.002957  -0.001908  -0.006110
     26      -0.000508  -0.000052  -0.001362
     27       0.219495   0.003479  -0.120981
     28       0.147631   0.001691  -0.081503
     29       0.555450   0.009003  -0.306634
     30       0.270306  -0.033509   0.490367
     31      -0.052452   0.005853  -0.095228
     32      -0.200389   0.025034  -0.363905
     33      -0.000487   0.082911   0.004246
     34       0.009871  -0.474807  -0.022111
     35       0.004224  -0.184808  -0.008696
     36      -0.006475  -0.083952  -0.006456
     37      -0.019249  -0.305174  -0.022471
     38       0.022192   0.357295   0.025896
     39      -0.120263   0.014774  -0.218138
     40      -0.083422   0.009632  -0.151476
     41      -0.305087   0.037686  -0.554256
     42       0.019013  -0.005622  -0.001674
     43       0.015900  -0.004865  -0.001622
     44       0.002292  -0.000495  -0.000670
     45       0.003944   0.081561   0.004747
     46      -0.028045  -0.441409  -0.027525
     47      -0.011310  -0.173760  -0.011110
     48      -0.490475  -0.007795   0.270267
     49       0.092739   0.000835  -0.051180
     50       0.365190   0.005977  -0.201422
     51      -0.003995  -0.005912  -0.007241
     52       0.002752   0.003820   0.004912
     53      -0.001371  -0.002602  -0.003927
     54       0.003508  -0.091694  -0.004683
     55       0.008360  -0.326814  -0.018156
     56      -0.009393   0.386950   0.021341


-----------
IR SPECTRUM
-----------

 Mode    freq (cm**-1)   T**2         TX         TY         TZ
-------------------------------------------------------------------
   6:        69.62    0.000007  (  0.000148  -0.002668  -0.000036)
   7:        71.44    0.002236  ( -0.019563   0.028309   0.032427)
   8:        72.33    0.001040  ( -0.002357  -0.002506   0.032060)
   9:        99.97   10.497548  ( -2.335219   1.260967  -1.858565)
  10:       102.11   10.242475  (  0.555133   2.831212   1.385114)
  11:       102.89   10.092386  ( -2.170262  -0.621105   2.235302)
  12:       130.99    0.017487  (  0.130166  -0.002503  -0.023198)
  13:       131.64    0.033317  ( -0.104955   0.084311  -0.123262)
  14:       132.56    0.024235  (  0.015753   0.000777   0.154875)
  15:       205.80    0.065409  (  0.126355   0.207466  -0.080009)
  16:       212.43    0.255319  ( -0.184336   0.459327   0.101771)
  17:       254.58    0.025255  ( -0.146262   0.035763  -0.050825)
  18:       258.99    0.008504  (  0.031185  -0.082569   0.026712)
  19:       259.88    0.008919  (  0.043002  -0.003381   0.084016)
  20:       314.00    0.000598  (  0.007859   0.022078   0.007013)
  21:       314.52    0.001496  (  0.020044   0.032097   0.007974)
  22:       336.73    0.461842  ( -0.128881  -0.254411  -0.616852)
  23:       338.61    0.709022  ( -0.569615  -0.566345  -0.252613)
  24:       343.24   19.399631  ( -1.255896   1.328427   4.007198)
  25:       344.72  417.130596  (  1.006710  -5.284374 -19.702602)
  26:       345.84    1.638187  (  1.279681   0.023755  -0.006275)
  27:       347.26  422.754732  (-20.456310   0.971161  -1.830561)
  28:       349.32  420.125609  ( -1.005491 -19.678805   5.644400)
  29:       385.89   11.539556  ( -1.251259  -2.516994   1.907524)
  30:       387.59   44.408322  ( -0.131795  -5.507926  -3.748827)
  31:       388.13   44.118102  ( -6.584047  -0.430372   0.763683)
  32:       390.17   47.780096  (  1.573475  -3.886141   5.495651)
  33:       520.01    0.005094  ( -0.038276   0.056799  -0.020072)
  34:       520.43    0.008957  ( -0.004363   0.000060   0.094542)
  35:       521.64    0.007417  (  0.002102   0.044104  -0.073939)
  36:       561.76  290.975113  ( 10.360009   6.584526 -11.844381)
  37:       562.22  289.211425  ( 12.090575 -11.119549   4.402845)
  38:       563.06  288.933289  ( -6.005168 -11.172454 -11.315808)
  39:      1629.91  204.934783  (  1.516392  13.941281  -2.876809)
  40:      1630.74  202.726168  (-14.077668   1.163084  -1.786807)
  41:      1631.33  204.746299  (  1.760907  -3.109443 -13.855572)
  42:      1632.68    4.098143  ( -1.374216  -1.486284   0.025165)
  43:      1633.50    2.938815  (  1.580836  -0.082741   0.657971)
  44:      1638.26    0.311674  (  0.486468  -0.212955   0.172261)
  45:      3824.08    4.326266  ( -0.031414  -2.040033   0.404405)
  46:      3824.35  293.917103  (  0.227028 -16.569148   4.396463)
  47:      3825.13    0.258458  (  0.395994  -0.076977  -0.309389)
  48:      3825.79  297.370140  (-12.995824  -3.195935 -10.874957)
  49:      3825.89  301.061257  (-11.452149   3.107226  12.659174)
  50:      3834.27    0.003723  (  0.043238  -0.007054   0.042473)
  51:      3905.54   18.699004  ( -4.176322  -0.252897  -1.092422)
  52:      3906.19  409.225437  ( 19.532414   0.947793   5.178023)
  53:      3906.35    1.912642  (  1.156621  -0.695692   0.301470)
  54:      3906.60   33.502016  ( -1.166471   1.008235   5.578963)
  55:      3906.93  427.815861  ( -0.752343 -19.802088   5.926816)
  56:      3907.29  397.315917  (  5.256558  -6.110616 -18.230329)

The first frequency considered to be a vibration is 6
The total number of vibrations considered is 51


--------------------------
THERMOCHEMISTRY AT 298.15K
--------------------------

Temperature         ... 298.15 K
Pressure            ... 1.00 atm
Total Mass          ... 159.03 AMU

Throughout the following assumptions are being made:
  (1) The electronic state is orbitally nondegenerate
      but the spin degeneracy is treated
  (2) There are no thermally accessible electronically excited states
  (3) Hindered rotations indicated by low frequency modes are not
      treated as such but are treated as vibrations and this may
      cause some error
  (4) All equations used are the standard statistical mechanics
      equations for an ideal gas
  (5) All vibrations are strictly harmonic

freq.      69.62  E(vib)   ...       0.50 
freq.      71.44  E(vib)   ...       0.50 
freq.      72.33  E(vib)   ...       0.50 
freq.      99.97  E(vib)   ...       0.46 
freq.     102.11  E(vib)   ...       0.46 
freq.     102.89  E(vib)   ...       0.46 
freq.     130.99  E(vib)   ...       0.42 
freq.     131.64  E(vib)   ...       0.42 
freq.     132.56  E(vib)   ...       0.42 
freq.     205.80  E(vib)   ...       0.35 
freq.     212.43  E(vib)   ...       0.34 
freq.     254.58  E(vib)   ...       0.30 
freq.     258.99  E(vib)   ...       0.30 
freq.     259.88  E(vib)   ...       0.30 
freq.     314.00  E(vib)   ...       0.25 
freq.     314.52  E(vib)   ...       0.25 
freq.     336.73  E(vib)   ...       0.24 
freq.     338.61  E(vib)   ...       0.23 
freq.     343.24  E(vib)   ...       0.23 
freq.     344.72  E(vib)   ...       0.23 
freq.     345.84  E(vib)   ...       0.23 
freq.     347.26  E(vib)   ...       0.23 
freq.     349.32  E(vib)   ...       0.23 
freq.     385.89  E(vib)   ...       0.20 
freq.     387.59  E(vib)   ...       0.20 
freq.     388.13  E(vib)   ...       0.20 
freq.     390.17  E(vib)   ...       0.20 
freq.     520.01  E(vib)   ...       0.13 
freq.     520.43  E(vib)   ...       0.13 
freq.     521.64  E(vib)   ...       0.13 
freq.     561.76  E(vib)   ...       0.11 
freq.     562.22  E(vib)   ...       0.11 
freq.     563.06  E(vib)   ...       0.11 
freq.    1629.91  E(vib)   ...       0.00 
freq.    1630.74  E(vib)   ...       0.00 
freq.    1631.33  E(vib)   ...       0.00 
freq.    1632.68  E(vib)   ...       0.00 
freq.    1633.50  E(vib)   ...       0.00 
freq.    1638.26  E(vib)   ...       0.00 
freq.    3824.08  E(vib)   ...       0.00 
freq.    3824.35  E(vib)   ...       0.00 
freq.    3825.13  E(vib)   ...       0.00 
freq.    3825.79  E(vib)   ...       0.00 
freq.    3825.89  E(vib)   ...       0.00 
freq.    3834.27  E(vib)   ...       0.00 
freq.    3905.54  E(vib)   ...       0.00 
freq.    3906.19  E(vib)   ...       0.00 
freq.    3906.35  E(vib)   ...       0.00 
freq.    3906.60  E(vib)   ...       0.00 
freq.    3906.93  E(vib)   ...       0.00 
freq.    3907.29  E(vib)   ...       0.00 

------------
INNER ENERGY
------------

The inner energy is: U= E(el) + E(ZPE) + E(vib) + E(rot) + E(trans)
    E(el)   - is the total energy from the electronic structure calculation
              = E(kin-el) + E(nuc-el) + E(el-el) + E(nuc-nuc)
    E(ZPE)  - the the zero temperature vibrational energy from the frequency calculation
    E(vib)  - the the finite temperature correction to E(ZPE) due to population
              of excited vibrational states
    E(rot)  - is the rotational thermal energy
    E(trans)- is the translational thermal energy

Summary of contributions to the inner energy U:
Electronic energy                ...  -1401.03655555 Eh
Zero point energy                ...      0.15066706 Eh      94.54 kcal/mol
Thermal vibrational correction   ...      0.01497550 Eh       9.40 kcal/mol
Thermal rotational correction    ...      0.00141627 Eh       0.89 kcal/mol
Thermal translational correction ...      0.00141627 Eh       0.89 kcal/mol
-----------------------------------------------------------------------
Total thermal energy                  -1400.86808045 Eh


Summary of corrections to the electronic energy:
(perhaps to be used in another calculation)
Total thermal correction                  0.01780804 Eh      11.17 kcal/mol
Non-thermal (ZPE) correction              0.15066706 Eh      94.54 kcal/mol
-----------------------------------------------------------------------
Total correction                          0.16847511 Eh     105.72 kcal/mol


--------
ENTHALPY
--------

The enthalpy is H = U + kB*T
                kB is Boltzmann's constant
Total free energy                 ...  -1400.86808045 Eh 
Thermal Enthalpy correction       ...      0.00094421 Eh       0.59 kcal/mol
-----------------------------------------------------------------------
Total Enthalpy                    ...  -1400.86713624 Eh


Note: Only C1 symmetry has been detected, increase convergence thresholds 
      if your molecule has a higher symmetry. Symmetry factor of 1.0 is   
      used for the rotational entropy correction. 
 

Note: Rotational entropy computed according to Herzberg 
Infrared and Raman Spectra, Chapter V,1, Van Nostrand Reinhold, 1945 
Point Group:  C1, Symmetry Number:   1  
Rotational constants in cm-1:     0.047520     0.047305     0.047130 

Vibrational entropy computed according to the QRRHO of S. Grimme
Chem.Eur.J. 2012 18 9955


-------
ENTROPY
-------

The entropy contributions are T*S = T*(S(el)+S(vib)+S(rot)+S(trans))
     S(el)   - electronic entropy
     S(vib)  - vibrational entropy
     S(rot)  - rotational entropy
     S(trans)- translational entropy
The entropies will be listed as mutliplied by the temperature to get
units of energy

Electronic entropy                ...      0.00130891 Eh      0.82 kcal/mol
Vibrational entropy               ...      0.02650169 Eh     16.63 kcal/mol
Rotational entropy                ...      0.01383166 Eh      8.68 kcal/mol
Translational entropy             ...      0.01952828 Eh     12.25 kcal/mol
-----------------------------------------------------------------------
Final entropy term                ...      0.06117054 Eh     38.39 kcal/mol

In case the symmetry of your molecule has not been determined correctly
or in case you have a reason to use a different symmetry number we print 
out the resulting rotational entropy values for sn=1,12 :
 --------------------------------------------------------
|  sn= 1 | S(rot)=       0.01383166 Eh      8.68 kcal/mol|
|  sn= 2 | S(rot)=       0.01317720 Eh      8.27 kcal/mol|
|  sn= 3 | S(rot)=       0.01279437 Eh      8.03 kcal/mol|
|  sn= 4 | S(rot)=       0.01252274 Eh      7.86 kcal/mol|
|  sn= 5 | S(rot)=       0.01231206 Eh      7.73 kcal/mol|
|  sn= 6 | S(rot)=       0.01213991 Eh      7.62 kcal/mol|
|  sn= 7 | S(rot)=       0.01199437 Eh      7.53 kcal/mol|
|  sn= 8 | S(rot)=       0.01186829 Eh      7.45 kcal/mol|
|  sn= 9 | S(rot)=       0.01175708 Eh      7.38 kcal/mol|
|  sn=10 | S(rot)=       0.01165760 Eh      7.32 kcal/mol|
|  sn=11 | S(rot)=       0.01156761 Eh      7.26 kcal/mol|
|  sn=12 | S(rot)=       0.01148546 Eh      7.21 kcal/mol|
 --------------------------------------------------------


-------------------
GIBBS FREE ENERGY
-------------------

The Gibbs free energy is G = H - T*S

Total enthalpy                    ...  -1400.86713624 Eh 
Total entropy correction          ...     -0.06117054 Eh    -38.39 kcal/mol
-----------------------------------------------------------------------
Final Gibbs free energy         ...  -1400.92830678 Eh

For completeness - the Gibbs free energy minus the electronic energy
G-E(el)                           ...      0.10824878 Eh     67.93 kcal/mol


Timings for individual modules:

Sum of individual times         ...    16641.286 sec (= 277.355 min)
GTO integral calculation        ...       34.755 sec (=   0.579 min)   0.2 %
SCF iterations                  ...     5069.979 sec (=  84.500 min)  30.5 %
SCF Gradient evaluation         ...     2552.346 sec (=  42.539 min)  15.3 %
Geometry relaxation             ...       13.373 sec (=   0.223 min)   0.1 %
Analytical frequency calculation...     8970.833 sec (= 149.514 min)  53.9 %
                             ****ORCA TERMINATED NORMALLY****
TOTAL RUN TIME: 0 days 4 hours 37 minutes 45 seconds 313 msec
