
                                 *****************
                                 * O   R   C   A *
                                 *****************

           --- An Ab Initio, DFT and Semiempirical electronic structure package ---

                  #######################################################
                  #                        -***-                        #
                  #          Department of theory and spectroscopy      #
                  #               Directorship: Frank Neese             #
                  #        Max Planck Institute fuer Kohlenforschung    #
                  #                Kaiser Wilhelm Platz 1               #
                  #                 D-45470 Muelheim/Ruhr               #
                  #                      Germany                        #
                  #                                                     #
                  #                  All rights reserved                #
                  #                        -***-                        #
                  #######################################################


                         Program Version 4.2.1 -  RELEASE  -


 With contributions from (in alphabetic order):
   Daniel Aravena         : Magnetic Suceptibility
   Michael Atanasov       : Ab Initio Ligand Field Theory (pilot matlab implementation)
   Alexander A. Auer      : GIAO ZORA, VPT2
   Ute Becker             : Parallelization
   Giovanni Bistoni       : ED, misc. LED, open-shell LED, HFLD
   Martin Brehm           : Molecular dynamics
   Dmytro Bykov           : SCF Hessian
   Vijay G. Chilkuri      : MRCI spin determinant printing, contributions to CSF-ICE
   Dipayan Datta          : RHF DLPNO-CCSD density
   Achintya Kumar Dutta   : EOM-CC, STEOM-CC
   Dmitry Ganyushin       : Spin-Orbit,Spin-Spin,Magnetic field MRCI
   Miquel Garcia          : C-PCM Hessian, Gaussian charge scheme
   Yang Guo               : DLPNO-NEVPT2, CIM, IAO-localization
   Andreas Hansen         : Spin unrestricted coupled pair/coupled cluster methods
   Benjamin Helmich-Paris : CASSCF linear response (MC-RPA)
   Lee Huntington         : MR-EOM, pCC
   Robert Izsak           : Overlap fitted RIJCOSX, COSX-SCS-MP3, EOM
   Christian Kollmar      : KDIIS, OOCD, Brueckner-CCSD(T), CCSD density
   Simone Kossmann        : Meta GGA functionals, TD-DFT gradient, OOMP2, MP2 Hessian
   Martin Krupicka        : AUTO-CI
   Lucas Lang             : DCDCAS
   Dagmar Lenk            : GEPOL surface, SMD
   Dimitrios Liakos       : Extrapolation schemes; Compound Job, initial MDCI parallelization
   Dimitrios Manganas     : Further ROCIS development; embedding schemes
   Dimitrios Pantazis     : SARC Basis sets
   Taras Petrenko         : DFT Hessian,TD-DFT gradient, ASA, ECA, R-Raman, ABS, FL, XAS/XES, NRVS
   Peter Pinski           : DLPNO-MP2, DLPNO-MP2 Gradient
   Christoph Reimann      : Effective Core Potentials
   Marius Retegan         : Local ZFS, SOC
   Christoph Riplinger    : Optimizer, TS searches, QM/MM, DLPNO-CCSD(T), (RO)-DLPNO pert. Triples
   Tobias Risthaus        : Range-separated hybrids, TD-DFT gradient, RPA, STAB
   Michael Roemelt        : Original ROCIS implementation
   Masaaki Saitow         : Open-shell DLPNO-CCSD energy and density
   Barbara Sandhoefer     : DKH picture change effects
   Avijit Sen             : IP-ROCIS
   Kantharuban Sivalingam : CASSCF convergence, NEVPT2, FIC-MRCI
   Bernardo de Souza      : ESD, SOC TD-DFT
   Georgi Stoychev        : AutoAux, RI-MP2 NMR
   Willem Van den Heuvel  : Paramagnetic NMR
   Boris Wezisla          : Elementary symmetry handling
   Frank Wennmohs         : Technical directorship


 We gratefully acknowledge several colleagues who have allowed us to
 interface, adapt or use parts of their codes:
   Stefan Grimme, W. Hujo, H. Kruse,             : VdW corrections, initial TS optimization,
                  C. Bannwarth                     DFT functionals, gCP, sTDA/sTD-DF
   Ed Valeev, F. Pavosevic, A. Kumar             : LibInt (2-el integral package), F12 methods
   Garnet Chan, S. Sharma, J. Yang, R. Olivares  : DMRG
   Ulf Ekstrom                                   : XCFun DFT Library
   Mihaly Kallay                                 : mrcc  (arbitrary order and MRCC methods)
   Andreas Klamt, Michael Diedenhofen            : otool_cosmo (COSMO solvation model)
   Jiri Pittner, Ondrej Demel                    : Mk-CCSD
   Frank Weinhold                                : gennbo (NPA and NBO analysis)
   Christopher J. Cramer and Donald G. Truhlar   : smd solvation model
   Lars Goerigk                                  : TD-DFT with DH, B97 family of functionals
   V. Asgeirsson, H. Jonsson                     : NEB implementation
   FAccTs GmbH                                   : IRC, NEB, NEB-TS, Multilevel, MM, QM/MM, CI optimization
   S Lehtola, MJT Oliveira, MAL Marques          : LibXC Library


 Your calculation uses the libint2 library for the computation of 2-el integrals
 For citations please refer to: http://libint.valeyev.net

 Your ORCA version has been built with support for libXC version: 4.2.3
 For citations please refer to: https://tddft.org/programs/libxc/

 This ORCA versions uses:
   CBLAS   interface :  Fast vector & matrix operations
   LAPACKE interface :  Fast linear algebra routines




***************************************
The coordinates will be read from file: ethanoic_acid.xyz
***************************************


----- Orbital basis set information -----
Your calculation utilizes the basis: def2-SVP
   F. Weigend and R. Ahlrichs, Phys. Chem. Chem. Phys. 7, 3297 (2005).

================================================================================
                                        WARNINGS
                       Please study these warnings very carefully!
================================================================================


WARNING: Geometry Optimization
  ===> : Switching off AutoStart
         For restart on a previous wavefunction, please use MOREAD

INFO   : the flag for use of LIBINT has been found!

================================================================================
                                       INPUT FILE
================================================================================
NAME = ethanoic_acid.inp
|  1> ! PBE0
|  2> ! opt anfreq
|  3> * xyzfile 0 1 ethanoic_acid.xyz **                         ****END OF INPUT****
================================================================================

                       *****************************
                       * Geometry Optimization Run *
                       *****************************

Geometry optimization settings:
Update method            Update   .... BFGS
Choice of coordinates    CoordSys .... Z-matrix Internals
Initial Hessian          InHess   .... Almoef's Model

Convergence Tolerances:
Energy Change            TolE     ....  5.0000e-06 Eh
Max. Gradient            TolMAXG  ....  3.0000e-04 Eh/bohr
RMS Gradient             TolRMSG  ....  1.0000e-04 Eh/bohr
Max. Displacement        TolMAXD  ....  4.0000e-03 bohr
RMS Displacement         TolRMSD  ....  2.0000e-03 bohr
Strict Convergence                ....  False
------------------------------------------------------------------------------
                        ORCA OPTIMIZATION COORDINATE SETUP
------------------------------------------------------------------------------

The optimization will be done in new redundant internal coordinates
Making redundant internal coordinates   ...  (new redundants) done
Evaluating the initial hessian          ...  (Almloef) done
Evaluating the coordinates              ...  done
Calculating the B-matrix                .... done
Calculating the G-matrix                .... done
Diagonalizing the G-matrix              .... done
The first mode is                       ....    7
The number of degrees of freedom        ....   18

    -----------------------------------------------------------------
                    Redundant Internal Coordinates


    -----------------------------------------------------------------
         Definition                    Initial Value    Approx d2E/dq
    -----------------------------------------------------------------
      1. B(C   1,C   0)                  1.4609         0.481442   
      2. B(O   2,C   0)                  1.2854         0.821763   
      3. B(O   3,C   0)                  1.3246         0.711540   
      4. B(H   4,C   1)                  1.1110         0.333313   
      5. B(H   5,C   1)                  1.1099         0.334688   
      6. B(H   6,C   1)                  1.1099         0.334688   
      7. B(H   7,O   3)                  0.9675         0.505775   
      8. A(O   2,C   0,O   3)          116.6120         0.462212   
      9. A(C   1,C   0,O   2)          118.2639         0.433465   
     10. A(C   1,C   0,O   3)          125.1241         0.422417   
     11. A(H   4,C   1,H   5)          108.8831         0.284080   
     12. A(C   0,C   1,H   5)          108.4779         0.334131   
     13. A(C   0,C   1,H   6)          108.4779         0.334131   
     14. A(H   5,C   1,H   6)          109.2289         0.284262   
     15. A(H   4,C   1,H   6)          108.8831         0.284080   
     16. A(C   0,C   1,H   4)          112.8377         0.333902   
     17. A(C   0,O   3,H   7)          118.8791         0.377207   
     18. D(H   4,C   1,C   0,O   2)      0.0000         0.017093   
     19. D(H   5,C   1,C   0,O   3)     59.2705         0.017093   
     20. D(H   4,C   1,C   0,O   3)    180.0000         0.017093   
     21. D(H   6,C   1,C   0,O   2)    120.7295         0.017093   
     22. D(H   6,C   1,C   0,O   3)    -59.2705         0.017093   
     23. D(H   5,C   1,C   0,O   2)   -120.7295         0.017093   
     24. D(H   7,O   3,C   0,C   1)      0.0000         0.038035   
     25. D(H   7,O   3,C   0,O   2)    180.0000         0.038035   
    -----------------------------------------------------------------

Number of atoms                         .... 8
Number of degrees of freedom            .... 25

         *************************************************************
         *                GEOMETRY OPTIMIZATION CYCLE   1            *
         *************************************************************
---------------------------------
CARTESIAN COORDINATES (ANGSTROEM)
---------------------------------
  C      0.002740    0.011560    0.000000
  C     -1.364390   -0.503540    0.000000
  O      0.173160    1.285620    0.000000
  O      1.097900   -0.733570    0.000000
  H     -2.128940    0.302610    0.000000
  H     -1.503920   -1.130940    0.904890
  H     -1.503920   -1.130940   -0.904890
  H      1.007660   -1.696880    0.000000

----------------------------
CARTESIAN COORDINATES (A.U.)
----------------------------
  NO LB      ZA    FRAG     MASS         X           Y           Z
   0 C     6.0000    0    12.011    0.005178    0.021845    0.000000
   1 C     6.0000    0    12.011   -2.578323   -0.951553    0.000000
   2 O     8.0000    0    15.999    0.327225    2.429470    0.000000
   3 O     8.0000    0    15.999    2.074730   -1.386246    0.000000
   4 H     1.0000    0     1.008   -4.023114    0.571850    0.000000
   5 H     1.0000    0     1.008   -2.841997   -2.137167    1.709994
   6 H     1.0000    0     1.008   -2.841997   -2.137167   -1.709994
   7 H     1.0000    0     1.008    1.904201   -3.206638    0.000000

--------------------------------
INTERNAL COORDINATES (ANGSTROEM)
--------------------------------
 C      0   0   0     0.000000000000     0.00000000     0.00000000
 C      1   0   0     1.460949159588     0.00000000     0.00000000
 O      1   2   0     1.285407273980   118.26387775     0.00000000
 O      1   2   3     1.324610940050   125.12409225   180.00000000
 H      2   1   3     1.111042089662   112.83773565     0.00000000
 H      2   1   3     1.109921300363   108.47793042   239.27051881
 H      2   1   3     1.109921300363   108.47793042   120.72948119
 H      4   1   2     0.967527474390   118.87908844     0.00000000

---------------------------
INTERNAL COORDINATES (A.U.)
---------------------------
 C      0   0   0     0.000000000000     0.00000000     0.00000000
 C      1   0   0     2.760793807203     0.00000000     0.00000000
 O      1   2   0     2.429067718372   118.26387775     0.00000000
 O      1   2   3     2.503151910690   125.12409225   180.00000000
 H      2   1   3     2.099565272720   112.83773565     0.00000000
 H      2   1   3     2.097447287892   108.47793042   239.27051881
 H      2   1   3     2.097447287892   108.47793042   120.72948119
 H      4   1   2     1.828361953642   118.87908844     0.00000000

---------------------
BASIS SET INFORMATION
---------------------
There are 3 groups of distinct atoms

 Group   1 Type C   : 7s4p1d contracted to 3s2p1d pattern {511/31/1}
 Group   2 Type O   : 7s4p1d contracted to 3s2p1d pattern {511/31/1}
 Group   3 Type H   : 4s1p contracted to 2s1p pattern {31/1}

Atom   0C    basis set group =>   1
Atom   1C    basis set group =>   1
Atom   2O    basis set group =>   2
Atom   3O    basis set group =>   2
Atom   4H    basis set group =>   3
Atom   5H    basis set group =>   3
Atom   6H    basis set group =>   3
Atom   7H    basis set group =>   3
------------------------------------------------------------------------------
                           ORCA GTO INTEGRAL CALCULATION
------------------------------------------------------------------------------

                         BASIS SET STATISTICS AND STARTUP INFO

 # of primitive gaussian shells          ...   68
 # of primitive gaussian functions       ...  124
 # of contracted shells                  ...   36
 # of contracted basis functions         ...   76
 Highest angular momentum                ...    2
 Maximum contraction depth               ...    5
 Integral package used                   ... LIBINT
 Integral threshhold            Thresh   ...  2.500e-11
 Primitive cut-off              TCut     ...  2.500e-12


------------------------------ INTEGRAL EVALUATION ----------------------------


 * One electron integrals 
 Pre-screening matrix                    ... done
 Shell pair data                         ... done (   0.000 sec)

Timings:
 Total evaluation time               ...     0.003 sec (   0.000 min)
 One electron matrix time            ...     0.013 sec (   0.000 min) =433.3%
 Schwartz matrix evaluation time     ...     0.210 sec (   0.004 min) =7000.0%

-------------------------------------------------------------------------------
                                 ORCA SCF
-------------------------------------------------------------------------------

------------
SCF SETTINGS
------------
Hamiltonian:
 Density Functional     Method          .... DFT(GTOs)
 Exchange Functional    Exchange        .... PBE
   PBE kappa parameter   XKappa         ....  0.804000
   PBE mue parameter    XMuePBE         ....  0.219520
 Correlation Functional Correlation     .... PBE
   PBE beta parameter  CBetaPBE         ....  0.066725
 LDA part of GGA corr.  LDAOpt          .... PW91-LDA
 Gradients option       PostSCFGGA      .... off
 Hybrid DFT is turned on
   Fraction HF Exchange ScalHFX         ....  0.250000
   Scaling of DF-GGA-X  ScalDFX         ....  0.750000
   Scaling of DF-GGA-C  ScalDFC         ....  1.000000
   Scaling of DF-LDA-C  ScalLDAC        ....  1.000000
   Perturbative correction              ....  0.000000
   Density functional embedding theory  .... OFF
   NL short-range parameter             ....  6.900000


General Settings:
 Integral files         IntName         .... ethanoic_acid
 Hartree-Fock type      HFTyp           .... RHF
 Total Charge           Charge          ....    0
 Multiplicity           Mult            ....    1
 Number of Electrons    NEL             ....   32
 Basis Dimension        Dim             ....   76
 Nuclear Repulsion      ENuc            ....    120.0300863415 Eh

Convergence Acceleration:
 DIIS                   CNVDIIS         .... on
   Start iteration      DIISMaxIt       ....    12
   Startup error        DIISStart       ....  0.200000
   # of expansion vecs  DIISMaxEq       ....     5
   Bias factor          DIISBfac        ....   1.050
   Max. coefficient     DIISMaxC        ....  10.000
 Newton-Raphson         CNVNR           .... off
 SOSCF                  CNVSOSCF        .... on
   Start iteration      SOSCFMaxIt      ....   150
   Startup grad/error   SOSCFStart      ....  0.003300
 Level Shifting         CNVShift        .... on
   Level shift para.    LevelShift      ....    0.2500
   Turn off err/grad.   ShiftErr        ....    0.0010
 Zerner damping         CNVZerner       .... off
 Static damping         CNVDamp         .... on
   Fraction old density DampFac         ....    0.7000
   Max. Damping (<1)    DampMax         ....    0.9800
   Min. Damping (>=0)   DampMin         ....    0.0000
   Turn off err/grad.   DampErr         ....    0.1000
 Fernandez-Rico         CNVRico         .... off

SCF Procedure:
 Maximum # iterations   MaxIter         ....   125
 SCF integral mode      SCFMode         .... Direct
   Integral package                     .... LIBINT
 Reset frequency        DirectResetFreq ....    20
 Integral Threshold     Thresh          ....  2.500e-11 Eh
 Primitive CutOff       TCut            ....  2.500e-12 Eh

Convergence Tolerance:
 Convergence Check Mode ConvCheckMode   .... Total+1el-Energy
 Convergence forced     ConvForced      .... 0
 Energy Change          TolE            ....  1.000e-08 Eh
 1-El. energy change                    ....  1.000e-05 Eh
 Orbital Gradient       TolG            ....  1.000e-05
 Orbital Rotation angle TolX            ....  1.000e-05
 DIIS Error             TolErr          ....  5.000e-07


Diagonalization of the overlap matrix:
Smallest eigenvalue                        ... 2.903e-03
Time for diagonalization                   ...    0.003 sec
Threshold for overlap eigenvalues          ... 1.000e-08
Number of eigenvalues below threshold      ... 0
Time for construction of square roots      ...    0.001 sec
Total time needed                          ...    0.005 sec

-------------------
DFT GRID GENERATION
-------------------

General Integration Accuracy     IntAcc      ...  4.340
Radial Grid Type                 RadialGrid  ... Gauss-Chebyshev
Angular Grid (max. acc.)         AngularGrid ... Lebedev-110
Angular grid pruning method      GridPruning ... 3 (G Style)
Weight generation scheme         WeightScheme... Becke
Basis function cutoff            BFCut       ...    1.0000e-11
Integration weight cutoff        WCut        ...    1.0000e-14
Grids for H and He will be reduced by one unit

# of grid points (after initial pruning)     ...   9920 (   0.0 sec)
# of grid points (after weights+screening)   ...   9538 (   0.0 sec)
nearest neighbour list constructed           ...    0.0 sec
Grid point re-assignment to atoms done       ...    0.0 sec
Grid point division into batches done        ...    0.0 sec
Reduced shell lists constructed in    0.1 sec

Total number of grid points                  ...     9538
Total number of batches                      ...      154
Average number of points per batch           ...       61
Average number of grid points per atom       ...     1192
Average number of shells per batch           ...    29.88 (83.01%)
Average number of basis functions per batch  ...    63.69 (83.80%)
Average number of large shells per batch     ...    25.37 (84.91%)
Average number of large basis fcns per batch ...    52.86 (82.99%)
Maximum spatial batch extension              ...  20.06, 18.30, 25.65 au
Average spatial batch extension              ...   4.51,  4.02,  4.25 au

Time for grid setup =    0.100 sec

------------------------------
INITIAL GUESS: MODEL POTENTIAL
------------------------------
Loading Hartree-Fock densities                     ... done
Calculating cut-offs                               ... done
Setting up the integral package                    ... done
Initializing the effective Hamiltonian             ... done
Starting the Coulomb interaction                   ... done (   0.0 sec)
Reading the grid                                   ... done
Mapping shells                                     ... done
Starting the XC term evaluation                    ... done (   0.1 sec)
  promolecular density results
     # of electrons  =     32.001026163
     EX              =    -27.678252735
     EC              =     -1.053444379
     EX+EC           =    -28.731697114
Transforming the Hamiltonian                       ... done (   0.0 sec)
Diagonalizing the Hamiltonian                      ... done (   0.0 sec)
Back transforming the eigenvectors                 ... done (   0.0 sec)
Now organizing SCF variables                       ... done
                      ------------------
                      INITIAL GUESS DONE (   0.7 sec)
                      ------------------
--------------
SCF ITERATIONS
--------------
ITER       Energy         Delta-E        Max-DP      RMS-DP      [F,P]     Damp
               ***  Starting incremental Fock matrix formation  ***
  0   -228.4590032995   0.000000000000 0.11172261  0.00530826  0.2798370 0.7000
  1   -228.5474416510  -0.088438351553 0.06592086  0.00314716  0.1041282 0.7000
                               ***Turning on DIIS***
  2   -228.5759537628  -0.028512111792 0.07011011  0.00380237  0.0475497 0.0000
  3   -228.6285903817  -0.052636618846 0.05553666  0.00247722  0.0569259 0.0000
  4   -228.6372982828  -0.008707901171 0.01135771  0.00061063  0.0249737 0.0000
  5   -228.6384380001  -0.001139717288 0.00294273  0.00015295  0.0036636 0.0000
                      *** Initiating the SOSCF procedure ***
                           *** Shutting down DIIS ***
                      *** Re-Reading the Fockian *** 
                      *** Removing any level shift *** 
ITER      Energy       Delta-E        Grad      Rot      Max-DP    RMS-DP
  6   -228.63846839  -0.0000303882  0.000394  0.000394  0.001194  0.000059
               *** Restarting incremental Fock matrix formation ***
  7   -228.63847227  -0.0000038791  0.000198  0.000612  0.001213  0.000052
  8   -228.63847238  -0.0000001138  0.000330  0.000508  0.000505  0.000021
  9   -228.63847313  -0.0000007460  0.000098  0.000186  0.000231  0.000012
 10   -228.63847308   0.0000000444  0.000099  0.000079  0.000133  0.000006
 11   -228.63847320  -0.0000001127  0.000010  0.000023  0.000046  0.000002
 12   -228.63847320  -0.0000000005  0.000008  0.000007  0.000018  0.000001
                 **** Energy Check signals convergence ****
              ***Rediagonalizing the Fockian in SOSCF/NRSCF***

               *****************************************************
               *                     SUCCESS                       *
               *           SCF CONVERGED AFTER  13 CYCLES          *
               *****************************************************

Setting up the final grid:

General Integration Accuracy     IntAcc      ...  4.670
Radial Grid Type                 RadialGrid  ... Gauss-Chebyshev
Angular Grid (max. acc.)         AngularGrid ... Lebedev-302
Angular grid pruning method      GridPruning ... 3 (G Style)
Weight generation scheme         WeightScheme... Becke
Basis function cutoff            BFCut       ...    1.0000e-11
Integration weight cutoff        WCut        ...    1.0000e-14
Grids for H and He will be reduced by one unit

# of grid points (after initial pruning)     ...  38424 (   0.0 sec)
# of grid points (after weights+screening)   ...  36667 (   0.1 sec)
nearest neighbour list constructed           ...    0.0 sec
Grid point re-assignment to atoms done       ...    0.0 sec
Grid point division into batches done        ...    0.2 sec
Reduced shell lists constructed in    0.3 sec

Total number of grid points                  ...    36667
Total number of batches                      ...      577
Average number of points per batch           ...       63
Average number of grid points per atom       ...     4583
Average number of shells per batch           ...    27.37 (76.01%)
Average number of basis functions per batch  ...    57.82 (76.08%)
Average number of large shells per batch     ...    22.89 (83.66%)
Average number of large basis fcns per batch ...    47.23 (81.69%)
Maximum spatial batch extension              ...  17.67, 15.07, 16.88 au
Average spatial batch extension              ...   2.94,  2.79,  2.97 au

Final grid set up in    0.4 sec
Final integration                            ... done (   0.4 sec)
Change in XC energy                          ...     0.000027746
Integrated number of electrons               ...    31.999997186
Previous integrated no of electrons          ...    32.000436380

----------------
TOTAL SCF ENERGY
----------------

Total Energy       :         -228.63844545 Eh           -6221.56840 eV

Components:
Nuclear Repulsion  :          120.03008634 Eh            3266.18470 eV
Electronic Energy  :         -348.66853179 Eh           -9487.75310 eV
One Electron Energy:         -549.67854234 Eh          -14957.51356 eV
Two Electron Energy:          201.01001055 Eh            5469.76046 eV

Virial components:
Potential Energy   :         -455.31972443 Eh          -12389.87959 eV
Kinetic Energy     :          226.68127898 Eh            6168.31119 eV
Virial Ratio       :            2.00863400


DFT components:
N(Alpha)           :       15.999998592880 electrons
N(Beta)            :       15.999998592880 electrons
N(Total)           :       31.999997185761 electrons
E(X)               :      -21.091115493892 Eh       
E(C)               :       -1.070881587797 Eh       
E(XC)              :      -22.161997081690 Eh       
DFET-embed. en.    :        0.000000000000 Eh       

---------------
SCF CONVERGENCE
---------------

  Last Energy change         ...   -1.1949e-09  Tolerance :   1.0000e-08
  Last MAX-Density change    ...    3.7019e-06  Tolerance :   1.0000e-07
  Last RMS-Density change    ...    1.3319e-07  Tolerance :   5.0000e-09
  Last Orbital Gradient      ...    4.4652e-07  Tolerance :   1.0000e-05
  Last Orbital Rotation      ...    1.6235e-06  Tolerance :   1.0000e-05

             **** THE GBW FILE WAS UPDATED (ethanoic_acid.gbw) ****
             **** DENSITY FILE WAS UPDATED (ethanoic_acid.scfp) ****
             **** ENERGY FILE WAS UPDATED (ethanoic_acid.en.tmp) ****
             **** THE GBW FILE WAS UPDATED (ethanoic_acid.gbw) ****
             **** DENSITY FILE WAS UPDATED (ethanoic_acid.scfp) ****
----------------
ORBITAL ENERGIES
----------------

  NO   OCC          E(Eh)            E(eV) 
   0   2.0000     -19.269998      -524.3633 
   1   2.0000     -19.175698      -521.7973 
   2   2.0000     -10.366497      -282.0867 
   3   2.0000     -10.261951      -279.2419 
   4   2.0000      -1.124393       -30.5963 
   5   2.0000      -0.991328       -26.9754 
   6   2.0000      -0.780794       -21.2465 
   7   2.0000      -0.661597       -18.0030 
   8   2.0000      -0.532175       -14.4812 
   9   2.0000      -0.491194       -13.3661 
  10   2.0000      -0.472424       -12.8553 
  11   2.0000      -0.416163       -11.3244 
  12   2.0000      -0.414796       -11.2872 
  13   2.0000      -0.387401       -10.5417 
  14   2.0000      -0.309888        -8.4325 
  15   2.0000      -0.265551        -7.2260 
  16   0.0000       0.003846         0.1047 
  17   0.0000       0.033834         0.9207 
  18   0.0000       0.089088         2.4242 
  19   0.0000       0.120902         3.2899 
  20   0.0000       0.129418         3.5216 
  21   0.0000       0.213613         5.8127 
  22   0.0000       0.284867         7.7516 
  23   0.0000       0.312875         8.5138 
  24   0.0000       0.450672        12.2634 
  25   0.0000       0.458339        12.4720 
  26   0.0000       0.517465        14.0809 
  27   0.0000       0.538997        14.6668 
  28   0.0000       0.543325        14.7846 
  29   0.0000       0.583055        15.8657 
  30   0.0000       0.614613        16.7245 
  31   0.0000       0.639454        17.4004 
  32   0.0000       0.654899        17.8207 
  33   0.0000       0.664521        18.0825 
  34   0.0000       0.675091        18.3702 
  35   0.0000       0.850049        23.1310 
  36   0.0000       0.962247        26.1841 
  37   0.0000       0.971678        26.4407 
  38   0.0000       0.983498        26.7623 
  39   0.0000       1.043207        28.3871 
  40   0.0000       1.127876        30.6911 
  41   0.0000       1.204753        32.7830 
  42   0.0000       1.247203        33.9381 
  43   0.0000       1.323922        36.0257 
  44   0.0000       1.398570        38.0570 
  45   0.0000       1.404826        38.2273 
  46   0.0000       1.497549        40.7504 
  47   0.0000       1.595252        43.4090 
  48   0.0000       1.606217        43.7074 
  49   0.0000       1.619188        44.0604 
  50   0.0000       1.704185        46.3732 
  51   0.0000       1.748740        47.5856 
  52   0.0000       1.759226        47.8710 
  53   0.0000       1.766710        48.0746 
  54   0.0000       1.835792        49.9544 
  55   0.0000       1.956205        53.2311 
  56   0.0000       2.020157        54.9713 
  57   0.0000       2.069220        56.3063 
  58   0.0000       2.187390        59.5219 
  59   0.0000       2.235675        60.8358 
  60   0.0000       2.394856        65.1673 
  61   0.0000       2.453858        66.7729 
  62   0.0000       2.478762        67.4505 
  63   0.0000       2.676245        72.8243 
  64   0.0000       2.701990        73.5249 
  65   0.0000       2.756311        75.0030 
  66   0.0000       2.800151        76.1960 
  67   0.0000       2.809852        76.4599 
  68   0.0000       2.862171        77.8836 
  69   0.0000       3.039775        82.7165 
  70   0.0000       3.052759        83.0698 
  71   0.0000       3.121623        84.9437 
  72   0.0000       3.278863        89.2224 
  73   0.0000       3.439784        93.6013 
  74   0.0000       3.621977        98.5590 
  75   0.0000       3.805158       103.5436 

                    ********************************
                    * MULLIKEN POPULATION ANALYSIS *
                    ********************************

-----------------------
MULLIKEN ATOMIC CHARGES
-----------------------
   0 C :    0.153013
   1 C :   -0.097894
   2 O :   -0.318279
   3 O :   -0.166415
   4 H :    0.095611
   5 H :    0.071933
   6 H :    0.071933
   7 H :    0.190100
Sum of atomic charges:   -0.0000000

--------------------------------
MULLIKEN REDUCED ORBITAL CHARGES
--------------------------------
  0 C s       :     3.089897  s :     3.089897
      pz      :     0.825398  p :     2.628930
      px      :     0.931791
      py      :     0.871741
      dz2     :     0.007150  d :     0.128160
      dxz     :     0.012621
      dyz     :     0.023455
      dx2y2   :     0.034372
      dxy     :     0.050562
  1 C s       :     3.026326  s :     3.026326
      pz      :     1.019280  p :     3.046640
      px      :     0.976972
      py      :     1.050389
      dz2     :     0.005037  d :     0.024928
      dxz     :     0.001989
      dyz     :     0.006544
      dx2y2   :     0.005591
      dxy     :     0.005767
  2 O s       :     3.813859  s :     3.813859
      pz      :     1.386038  p :     4.489376
      px      :     1.804836
      py      :     1.298502
      dz2     :     0.001737  d :     0.015045
      dxz     :     0.000123
      dyz     :     0.004720
      dx2y2   :     0.005435
      dxy     :     0.003029
  3 O s       :     3.673207  s :     3.673207
      pz      :     1.771398  p :     4.479586
      px      :     1.528786
      py      :     1.179402
      dz2     :     0.002104  d :     0.013622
      dxz     :     0.002604
      dyz     :     0.000539
      dx2y2   :     0.005037
      dxy     :     0.003338
  4 H s       :     0.881370  s :     0.881370
      pz      :     0.004346  p :     0.023019
      px      :     0.008143
      py      :     0.010530
  5 H s       :     0.903515  s :     0.903515
      pz      :     0.011504  p :     0.024553
      px      :     0.004835
      py      :     0.008214
  6 H s       :     0.903515  s :     0.903515
      pz      :     0.011504  p :     0.024553
      px      :     0.004835
      py      :     0.008214
  7 H s       :     0.739297  s :     0.739297
      pz      :     0.017650  p :     0.070602
      px      :     0.014369
      py      :     0.038583


                     *******************************
                     * LOEWDIN POPULATION ANALYSIS *
                     *******************************

----------------------
LOEWDIN ATOMIC CHARGES
----------------------
   0 C :    0.099476
   1 C :   -0.102327
   2 O :   -0.250007
   3 O :   -0.015434
   4 H :    0.064449
   5 H :    0.051071
   6 H :    0.051071
   7 H :    0.101702

-------------------------------
LOEWDIN REDUCED ORBITAL CHARGES
-------------------------------
  0 C s       :     2.863170  s :     2.863170
      pz      :     0.809355  p :     2.765743
      px      :     0.984514
      py      :     0.971875
      dz2     :     0.015650  d :     0.271611
      dxz     :     0.023757
      dyz     :     0.041868
      dx2y2   :     0.080088
      dxy     :     0.110248
  1 C s       :     2.854042  s :     2.854042
      pz      :     1.059037  p :     3.178626
      px      :     1.040535
      py      :     1.079053
      dz2     :     0.014533  d :     0.069659
      dxz     :     0.004716
      dyz     :     0.017589
      dx2y2   :     0.014692
      dxy     :     0.018129
  2 O s       :     3.608176  s :     3.608176
      pz      :     1.388076  p :     4.616657
      px      :     1.810978
      py      :     1.417602
      dz2     :     0.003748  d :     0.025174
      dxz     :     0.000128
      dyz     :     0.005600
      dx2y2   :     0.011085
      dxy     :     0.004613
  3 O s       :     3.406928  s :     3.406928
      pz      :     1.726872  p :     4.580913
      px      :     1.566403
      py      :     1.287639
      dz2     :     0.004413  d :     0.027593
      dxz     :     0.002987
      dyz     :     0.000988
      dx2y2   :     0.011723
      dxy     :     0.007481
  4 H s       :     0.870367  s :     0.870367
      pz      :     0.011223  p :     0.065183
      px      :     0.025288
      py      :     0.028672
  5 H s       :     0.882071  s :     0.882071
      pz      :     0.031244  p :     0.066858
      px      :     0.013362
      py      :     0.022252
  6 H s       :     0.882071  s :     0.882071
      pz      :     0.031244  p :     0.066858
      px      :     0.013362
      py      :     0.022252
  7 H s       :     0.720005  s :     0.720005
      pz      :     0.046512  p :     0.178293
      px      :     0.037027
      py      :     0.094754


                      *****************************
                      * MAYER POPULATION ANALYSIS *
                      *****************************

  NA   - Mulliken gross atomic population
  ZA   - Total nuclear charge
  QA   - Mulliken gross atomic charge
  VA   - Mayer's total valence
  BVA  - Mayer's bonded valence
  FA   - Mayer's free valence

  ATOM       NA         ZA         QA         VA         BVA        FA
  0 C      5.8470     6.0000     0.1530     4.3538     4.3538    -0.0000
  1 C      6.0979     6.0000    -0.0979     3.8439     3.8439    -0.0000
  2 O      8.3183     8.0000    -0.3183     2.1403     2.1403    -0.0000
  3 O      8.1664     8.0000    -0.1664     2.2285     2.2285    -0.0000
  4 H      0.9044     1.0000     0.0956     1.0095     1.0095     0.0000
  5 H      0.9281     1.0000     0.0719     0.9878     0.9878    -0.0000
  6 H      0.9281     1.0000     0.0719     0.9878     0.9878    -0.0000
  7 H      0.8099     1.0000     0.1901     1.0041     1.0041    -0.0000

  Mayer bond orders larger than 0.100000
B(  0-C ,  1-C ) :   1.0453 B(  0-C ,  2-O ) :   2.0117 B(  0-C ,  3-O ) :   1.2126 
B(  1-C ,  4-H ) :   0.9549 B(  1-C ,  5-H ) :   0.9440 B(  1-C ,  6-H ) :   0.9440 
B(  3-O ,  7-H ) :   0.9452 

-------
TIMINGS
-------

Total SCF time: 0 days 0 hours 0 min 12 sec 

Total time                  ....      12.456 sec
Sum of individual times     ....      11.904 sec  ( 95.6%)

Fock matrix formation       ....      10.761 sec  ( 86.4%)
  XC integration            ....       1.955 sec  ( 18.2% of F)
    Basis function eval.    ....       0.623 sec  ( 31.9% of XC)
    Density eval.           ....       0.454 sec  ( 23.2% of XC)
    XC-Functional eval.     ....       0.171 sec  (  8.7% of XC)
    XC-Potential eval.      ....       0.498 sec  ( 25.5% of XC)
Diagonalization             ....       0.011 sec  (  0.1%)
Density matrix formation    ....       0.001 sec  (  0.0%)
Population analysis         ....       0.007 sec  (  0.1%)
Initial guess               ....       0.584 sec  (  4.7%)
Orbital Transformation      ....       0.000 sec  (  0.0%)
Orbital Orthonormalization  ....       0.000 sec  (  0.0%)
DIIS solution               ....       0.007 sec  (  0.1%)
SOSCF solution              ....       0.008 sec  (  0.1%)
Grid generation             ....       0.525 sec  (  4.2%)

-------------------------   --------------------
FINAL SINGLE POINT ENERGY      -228.638445451351
-------------------------   --------------------

------------------------------------------------------------------------------
                         ORCA SCF GRADIENT CALCULATION
------------------------------------------------------------------------------

Gradient of the Kohn-Sham DFT energy:
Kohn-Sham wavefunction type      ... RKS
Hartree-Fock exchange scaling    ...    0.250
Number of operators              ...    1
Number of atoms                  ...    8
Basis set dimensions             ...   76
Integral neglect threshold       ... 2.5e-11
Integral primitive cutoff        ... 2.5e-12

Nuclear repulsion gradient       ... done
One Electron Gradient            ... done
Pre-screening matrix             ... done
Starting the two electron gradient:
Two electron gradient done
Exchange-correlation gradient    ... done

------------------
CARTESIAN GRADIENT
------------------

   1   C   :   -0.026079114   -0.141934641    0.000000000
   2   C   :    0.018214230    0.025743684    0.000000000
   3   O   :    0.008963393    0.103003318   -0.000000000
   4   O   :   -0.005248402    0.009943671   -0.000000000
   5   H   :   -0.013141781    0.004546228   -0.000000000
   6   H   :    0.003355015    0.001211105    0.005961500
   7   H   :    0.003355015    0.001211104   -0.005961499
   8   H   :    0.010581645   -0.003724470   -0.000000000

Difference to translation invariance:
           :   -0.0000000000   -0.0000000000   -0.0000000000

Norm of the cartesian gradient     ...    0.1818027738
RMS gradient                       ...    0.0371103358
MAX gradient                       ...    0.1419346413

-------
TIMINGS
-------

Total SCF gradient time            ...        4.335 sec

One electron gradient       ....       0.032 sec  (  0.7%)
Prescreening matrices       ....       0.055 sec  (  1.3%)
Two electron gradient       ....       1.940 sec  ( 44.8%)
XC gradient                 ....       2.004 sec  ( 46.2%)
------------------------------------------------------------------------------
                         ORCA GEOMETRY RELAXATION STEP
------------------------------------------------------------------------------

Reading the OPT-File                    .... done
Getting information on internals        .... done
Copying old internal coords+grads       .... done
Making the new internal coordinates     .... (new redundants).... done
Validating the new internal coordinates .... (new redundants).... done
Calculating the B-matrix                .... done
Calculating the G,G- and P matrices     .... done
Transforming gradient to internals      .... done
Projecting the internal gradient        .... done
Number of atoms                         ....   8
Number of internal coordinates          ....  25
Current Energy                          ....  -228.638445451 Eh
Current gradient norm                   ....     0.181802774 Eh/bohr
Maximum allowed component of the step   ....  0.300
Current trust radius                    ....  0.300
Evaluating the initial hessian          ....  (Almloef) done
Projecting the Hessian                  .... done
Forming the augmented Hessian           .... done
Diagonalizing the augmented Hessian     .... done
Last element of RFO vector              ....  0.984708076
Lowest eigenvalues of augmented Hessian:
 -0.019507342  0.017092604  0.022211575  0.038035216  0.133454808
Length of the computed step             ....  0.176917942
The final length of the internal step   ....  0.176917942
Converting the step to cartesian space:
 Initial RMS(Int)=    0.0353835883
Transforming coordinates:
 Iter   0:  RMS(Cart)=    0.0461360415 RMS(Int)=    0.0353509957
 Iter   1:  RMS(Cart)=    0.0014240227 RMS(Int)=    0.0013041462
 Iter   2:  RMS(Cart)=    0.0000946482 RMS(Int)=    0.0000610045
 Iter   3:  RMS(Cart)=    0.0000071492 RMS(Int)=    0.0000075678
 Iter   4:  RMS(Cart)=    0.0000005866 RMS(Int)=    0.0000004349
 Iter   5:  RMS(Cart)=    0.0000000450 RMS(Int)=    0.0000000462
done
Storing new coordinates                 .... done

                                .--------------------.
          ----------------------|Geometry convergence|-------------------------
          Item                value                   Tolerance       Converged
          ---------------------------------------------------------------------
          RMS gradient        0.0233091412            0.0001000000      NO
          MAX gradient        0.1032881409            0.0003000000      NO
          RMS step            0.0353835883            0.0020000000      NO
          MAX step            0.1227764231            0.0040000000      NO
          ........................................................
          Max(Bonds)      0.0650      Max(Angles)    3.94
          Max(Dihed)        0.07      Max(Improp)    0.00
          ---------------------------------------------------------------------

The optimization has not yet converged - more geometry cycles are needed


    ---------------------------------------------------------------------------
                         Redundant Internal Coordinates
                            (Angstroem and degrees)

        Definition                    Value    dE/dq     Step     New-Value
    ----------------------------------------------------------------------------
     1. B(C   1,C   0)                1.4609 -0.022548  0.0238    1.4848   
     2. B(O   2,C   0)                1.2854  0.103288 -0.0650    1.2204   
     3. B(O   3,C   0)                1.3246  0.000905 -0.0007    1.3240   
     4. B(H   4,C   1)                1.1110  0.012334 -0.0185    1.0925   
     5. B(H   5,C   1)                1.1099  0.003760 -0.0056    1.1043   
     6. B(H   6,C   1)                1.1099  0.003760 -0.0056    1.1043   
     7. B(H   7,O   3)                0.9675  0.002701 -0.0027    0.9648   
     8. A(O   2,C   0,O   3)          116.61 -0.009588    1.19    117.81   
     9. A(C   1,C   0,O   2)          118.26 -0.021234    2.74    121.01   
    10. A(C   1,C   0,O   3)          125.12  0.030823   -3.94    121.19   
    11. A(H   4,C   1,H   5)          108.88 -0.001380    0.22    109.10   
    12. A(C   0,C   1,H   5)          108.48 -0.008062    1.35    109.82   
    13. A(C   0,C   1,H   6)          108.48 -0.008062    1.35    109.82   
    14. A(H   5,C   1,H   6)          109.23  0.006851   -1.15    108.08   
    15. A(H   4,C   1,H   6)          108.88 -0.001380    0.22    109.10   
    16. A(C   0,C   1,H   4)          112.84  0.012094   -1.99    110.84   
    17. A(C   0,O   3,H   7)          118.88  0.019923   -2.88    116.00   
    18. D(H   4,C   1,C   0,O   2)      0.00  0.000000   -0.00     -0.00   
    19. D(H   5,C   1,C   0,O   3)     59.27 -0.000439    0.07     59.34   
    20. D(H   4,C   1,C   0,O   3)    180.00  0.000000   -0.00    180.00   
    21. D(H   6,C   1,C   0,O   2)    120.73  0.000439   -0.07    120.66   
    22. D(H   6,C   1,C   0,O   3)    -59.27  0.000439   -0.07    -59.34   
    23. D(H   5,C   1,C   0,O   2)   -120.73 -0.000439    0.07   -120.66   
    24. D(H   7,O   3,C   0,C   1)      0.00  0.000000   -0.00     -0.00   
    25. D(H   7,O   3,C   0,O   2)    180.00  0.000000   -0.00    180.00   
    ----------------------------------------------------------------------------

         *************************************************************
         *                GEOMETRY OPTIMIZATION CYCLE   2            *
         *************************************************************
---------------------------------
CARTESIAN COORDINATES (ANGSTROEM)
---------------------------------
  C      0.018234    0.059439   -0.000000
  C     -1.351197   -0.514316   -0.000000
  O      0.193877    1.267171   -0.000000
  O      1.088236   -0.720276    0.000000
  H     -2.104441    0.277058    0.000000
  H     -1.491902   -1.147482    0.893751
  H     -1.491902   -1.147482   -0.893751
  H      0.919385   -1.670192    0.000000

----------------------------
CARTESIAN COORDINATES (A.U.)
----------------------------
  NO LB      ZA    FRAG     MASS         X           Y           Z
   0 C     6.0000    0    12.011    0.034457    0.112324   -0.000000
   1 C     6.0000    0    12.011   -2.553392   -0.971916   -0.000000
   2 O     8.0000    0    15.999    0.366375    2.394606   -0.000000
   3 O     8.0000    0    15.999    2.056468   -1.361124    0.000000
   4 H     1.0000    0     1.008   -3.976818    0.523564    0.000000
   5 H     1.0000    0     1.008   -2.819287   -2.168427    1.688944
   6 H     1.0000    0     1.008   -2.819287   -2.168427   -1.688944
   7 H     1.0000    0     1.008    1.737386   -3.156205    0.000000

--------------------------------
INTERNAL COORDINATES (ANGSTROEM)
--------------------------------
 C      0   0   0     0.000000000000     0.00000000     0.00000000
 C      1   0   0     1.484767715811     0.00000000     0.00000000
 O      1   2   0     1.220436789298   121.00703653     0.00000000
 O      1   2   3     1.323956124952   121.18663867   179.99999915
 H      2   1   3     1.092542871192   110.85353214     0.00000000
 H      2   1   3     1.104304267259   109.82087934   239.35030719
 H      2   1   3     1.104304267394   109.82087934   120.64969269
 H      4   1   2     0.964806482435   116.00173464     0.00000000

---------------------------
INTERNAL COORDINATES (A.U.)
---------------------------
 C      0   0   0     0.000000000000     0.00000000     0.00000000
 C      1   0   0     2.805804355371     0.00000000     0.00000000
 O      1   2   0     2.306291295535   121.00703653     0.00000000
 O      1   2   3     2.501914489487   121.18663867   179.99999915
 H      2   1   3     2.064606816122   110.85353214     0.00000000
 H      2   1   3     2.086832633641   109.82087934   239.35030719
 H      2   1   3     2.086832633894   109.82087934   120.64969269
 H      4   1   2     1.823220024034   116.00173464     0.00000000


Diagonalization of the overlap matrix:
Smallest eigenvalue                        ... 3.114e-03
Time for diagonalization                   ...    0.003 sec
Threshold for overlap eigenvalues          ... 1.000e-08
Number of eigenvalues below threshold      ... 0
Time for construction of square roots      ...    0.002 sec
Total time needed                          ...    0.005 sec

-------------------
DFT GRID GENERATION
-------------------

General Integration Accuracy     IntAcc      ...  4.340
Radial Grid Type                 RadialGrid  ... Gauss-Chebyshev
Angular Grid (max. acc.)         AngularGrid ... Lebedev-110
Angular grid pruning method      GridPruning ... 3 (G Style)
Weight generation scheme         WeightScheme... Becke
Basis function cutoff            BFCut       ...    1.0000e-11
Integration weight cutoff        WCut        ...    1.0000e-14
Grids for H and He will be reduced by one unit

# of grid points (after initial pruning)     ...   9920 (   0.0 sec)
# of grid points (after weights+screening)   ...   9553 (   0.0 sec)
nearest neighbour list constructed           ...    0.0 sec
Grid point re-assignment to atoms done       ...    0.0 sec
Grid point division into batches done        ...    0.0 sec
Reduced shell lists constructed in    0.1 sec

Total number of grid points                  ...     9553
Total number of batches                      ...      153
Average number of points per batch           ...       62
Average number of grid points per atom       ...     1194
Average number of shells per batch           ...    29.94 (83.15%)
Average number of basis functions per batch  ...    63.79 (83.94%)
Average number of large shells per batch     ...    25.55 (85.34%)
Average number of large basis fcns per batch ...    53.32 (83.59%)
Maximum spatial batch extension              ...  22.07, 18.30, 21.59 au
Average spatial batch extension              ...   4.53,  3.94,  4.33 au

Time for grid setup =    0.079 sec

--------------
SCF ITERATIONS
--------------
ITER       Energy         Delta-E        Max-DP      RMS-DP      [F,P]     Damp
               ***  Starting incremental Fock matrix formation  ***
  0   -228.6475896450   0.000000000000 0.00899827  0.00047575  0.0352131 0.7000
                      *** Initiating the SOSCF procedure ***
                      *** Re-Reading the Fockian *** 
                      *** Removing any level shift *** 
ITER      Energy       Delta-E        Grad      Rot      Max-DP    RMS-DP
  1   -228.64899030  -0.0014006553  0.002402  0.002402  0.025930  0.001345
               *** Restarting incremental Fock matrix formation ***
  2   -228.65220745  -0.0032171512  0.004204  0.011851  0.017207  0.000706
  3   -228.65197024   0.0002372150  0.009030  0.009044  0.011464  0.000436
  4   -228.65239163  -0.0004213950  0.000589  0.000995  0.003622  0.000113
  5   -228.65239329  -0.0000016618  0.000656  0.000499  0.001736  0.000059
  6   -228.65239964  -0.0000063514  0.000032  0.000044  0.000069  0.000005
  7   -228.65239966  -0.0000000174  0.000015  0.000014  0.000033  0.000002
  8   -228.65239967  -0.0000000067  0.000007  0.000009  0.000017  0.000001
  9   -228.65239967  -0.0000000004  0.000004  0.000004  0.000008  0.000000
                  ***Gradient check signals convergence***
              ***Rediagonalizing the Fockian in SOSCF/NRSCF***

               *****************************************************
               *                     SUCCESS                       *
               *           SCF CONVERGED AFTER  10 CYCLES          *
               *****************************************************

Setting up the final grid:

General Integration Accuracy     IntAcc      ...  4.670
Radial Grid Type                 RadialGrid  ... Gauss-Chebyshev
Angular Grid (max. acc.)         AngularGrid ... Lebedev-302
Angular grid pruning method      GridPruning ... 3 (G Style)
Weight generation scheme         WeightScheme... Becke
Basis function cutoff            BFCut       ...    1.0000e-11
Integration weight cutoff        WCut        ...    1.0000e-14
Grids for H and He will be reduced by one unit

# of grid points (after initial pruning)     ...  38424 (   0.0 sec)
# of grid points (after weights+screening)   ...  36662 (   0.1 sec)
nearest neighbour list constructed           ...    0.0 sec
Grid point re-assignment to atoms done       ...    0.0 sec
Grid point division into batches done        ...    0.2 sec
Reduced shell lists constructed in    0.3 sec

Total number of grid points                  ...    36662
Total number of batches                      ...      576
Average number of points per batch           ...       63
Average number of grid points per atom       ...     4583
Average number of shells per batch           ...    27.44 (76.23%)
Average number of basis functions per batch  ...    58.03 (76.35%)
Average number of large shells per batch     ...    22.98 (83.73%)
Average number of large basis fcns per batch ...    47.42 (81.73%)
Maximum spatial batch extension              ...  17.67, 14.96, 16.88 au
Average spatial batch extension              ...   2.92,  2.73,  2.96 au

Final grid set up in    0.4 sec
Final integration                            ... done (   0.4 sec)
Change in XC energy                          ...     0.000087902
Integrated number of electrons               ...    32.000026933
Previous integrated no of electrons          ...    32.001230917
Total Energy       :         -228.65231177 Eh           -6221.94572 eV
  Last Energy change         ...   -2.4997e-10  Tolerance :   1.0000e-08
  Last MAX-Density change    ...    4.3710e-06  Tolerance :   1.0000e-07
             **** THE GBW FILE WAS UPDATED (ethanoic_acid.gbw) ****
             **** DENSITY FILE WAS UPDATED (ethanoic_acid.scfp) ****
             **** ENERGY FILE WAS UPDATED (ethanoic_acid.en.tmp) ****
             **** THE GBW FILE WAS UPDATED (ethanoic_acid.gbw) ****
             **** DENSITY FILE WAS UPDATED (ethanoic_acid.scfp) ****
Total SCF time: 0 days 0 hours 0 min 9 sec 

-------------------------   --------------------
FINAL SINGLE POINT ENERGY      -228.652311767513
-------------------------   --------------------

------------------------------------------------------------------------------
                         ORCA SCF GRADIENT CALCULATION
------------------------------------------------------------------------------

Gradient of the Kohn-Sham DFT energy:
Kohn-Sham wavefunction type      ... RKS
Hartree-Fock exchange scaling    ...    0.250
Number of operators              ...    1
Number of atoms                  ...    8
Basis set dimensions             ...   76
Integral neglect threshold       ... 2.5e-11
Integral primitive cutoff        ... 2.5e-12

Nuclear repulsion gradient       ... done
One Electron Gradient            ... done
Pre-screening matrix             ... done
Starting the two electron gradient:
Two electron gradient done
Exchange-correlation gradient    ... done

------------------
CARTESIAN GRADIENT
------------------

   1   C   :   -0.003085070   -0.061070799   -0.000000000
   2   C   :    0.003658381    0.020030073    0.000000000
   3   O   :    0.003572697    0.028461599   -0.000000000
   4   O   :   -0.011990429    0.015134827    0.000000000
   5   H   :   -0.001931878   -0.002831165    0.000000000
   6   H   :    0.001524149    0.000897881    0.002026783
   7   H   :    0.001524148    0.000897881   -0.002026784
   8   H   :    0.006728002   -0.001520297    0.000000000

Difference to translation invariance:
           :   -0.0000000000    0.0000000000   -0.0000000000

Norm of the cartesian gradient     ...    0.0736424270
RMS gradient                       ...    0.0150321975
MAX gradient                       ...    0.0610707994

-------
TIMINGS
-------

Total SCF gradient time            ...        4.045 sec

One electron gradient       ....       0.027 sec  (  0.7%)
Prescreening matrices       ....       0.045 sec  (  1.1%)
Two electron gradient       ....       1.713 sec  ( 42.3%)
XC gradient                 ....       1.987 sec  ( 49.1%)
------------------------------------------------------------------------------
                         ORCA GEOMETRY RELAXATION STEP
------------------------------------------------------------------------------

Reading the OPT-File                    .... done
Getting information on internals        .... done
Copying old internal coords+grads       .... done
Making the new internal coordinates     .... (new redundants).... done
Validating the new internal coordinates .... (new redundants).... done
Calculating the B-matrix                .... done
Calculating the G,G- and P matrices     .... done
Transforming gradient to internals      .... done
Projecting the internal gradient        .... done
Number of atoms                         ....   8
Number of internal coordinates          ....  25
Current Energy                          ....  -228.652311768 Eh
Current gradient norm                   ....     0.073642427 Eh/bohr
Maximum allowed component of the step   ....  0.300
Current trust radius                    ....  0.300
Updating the Hessian (BFGS)             .... done
Forming the augmented Hessian           .... done
Diagonalizing the augmented Hessian     .... done
Last element of RFO vector              ....  0.988300932
Lowest eigenvalues of augmented Hessian:
 -0.006767869  0.017092604  0.022211575  0.038035216  0.133454808
Length of the computed step             ....  0.154321875
The final length of the internal step   ....  0.154321875
Converting the step to cartesian space:
 Initial RMS(Int)=    0.0308643749
Transforming coordinates:
 Iter   0:  RMS(Cart)=    0.0516258951 RMS(Int)=    1.7774221079
 Iter   1:  RMS(Cart)=    0.0021572933 RMS(Int)=    0.0019755930
 Iter   2:  RMS(Cart)=    0.0001708356 RMS(Int)=    0.0001160922
 Iter   3:  RMS(Cart)=    0.0000162035 RMS(Int)=    0.0000171774
 Iter   4:  RMS(Cart)=    0.0000016479 RMS(Int)=    0.0000012990
 Iter   5:  RMS(Cart)=    0.0000001596 RMS(Int)=    0.0000001595
 Iter   6:  RMS(Cart)=    0.0000000161 RMS(Int)=    0.0000000142
done
Storing new coordinates                 .... done

                                .--------------------.
          ----------------------|Geometry convergence|-------------------------
          Item                value                   Tolerance       Converged
          ---------------------------------------------------------------------
          Energy change      -0.0138663162            0.0000050000      NO
          RMS gradient        0.0091109867            0.0001000000      NO
          MAX gradient        0.0286832839            0.0003000000      NO
          RMS step            0.0308643749            0.0020000000      NO
          MAX step            0.0867331409            0.0040000000      NO
          ........................................................
          Max(Bonds)      0.0360      Max(Angles)    4.97
          Max(Dihed)        0.13      Max(Improp)    0.00
          ---------------------------------------------------------------------

The optimization has not yet converged - more geometry cycles are needed


    ---------------------------------------------------------------------------
                         Redundant Internal Coordinates
                            (Angstroem and degrees)

        Definition                    Value    dE/dq     Step     New-Value
    ----------------------------------------------------------------------------
     1. B(C   1,C   0)                1.4848 -0.011736  0.0225    1.5073   
     2. B(O   2,C   0)                1.2204  0.028683 -0.0360    1.1845   
     3. B(O   3,C   0)                1.3240 -0.012276  0.0144    1.3383   
     4. B(H   4,C   1)                1.0925 -0.000724  0.0003    1.0928   
     5. B(H   5,C   1)                1.1043  0.000935 -0.0028    1.1015   
     6. B(H   6,C   1)                1.1043  0.000935 -0.0028    1.1015   
     7. B(H   7,O   3)                0.9648  0.000306 -0.0008    0.9640   
     8. A(O   2,C   0,O   3)          117.81 -0.010364    2.21    120.02   
     9. A(C   1,C   0,O   2)          121.01 -0.011691    2.76    123.77   
    10. A(C   1,C   0,O   3)          121.19  0.022055   -4.97    116.22   
    11. A(H   4,C   1,H   5)          109.11 -0.000912    0.24    109.35   
    12. A(C   0,C   1,H   5)          109.82 -0.003599    1.11    110.93   
    13. A(C   0,C   1,H   6)          109.82 -0.003599    1.11    110.93   
    14. A(H   5,C   1,H   6)          108.06  0.002971   -0.86    107.21   
    15. A(H   4,C   1,H   6)          109.11 -0.000912    0.24    109.35   
    16. A(C   0,C   1,H   4)          110.85  0.006005   -1.83    109.02   
    17. A(C   0,O   3,H   7)          116.00  0.012577   -3.24    112.76   
    18. D(H   4,C   1,C   0,O   2)     -0.00 -0.000000   -0.00     -0.00   
    19. D(H   5,C   1,C   0,O   3)     59.35 -0.000370    0.13     59.48   
    20. D(H   4,C   1,C   0,O   3)    180.00 -0.000000    0.00    180.00   
    21. D(H   6,C   1,C   0,O   2)    120.65  0.000370   -0.13    120.52   
    22. D(H   6,C   1,C   0,O   3)    -59.35  0.000370   -0.13    -59.48   
    23. D(H   5,C   1,C   0,O   2)   -120.65 -0.000370    0.13   -120.52   
    24. D(H   7,O   3,C   0,C   1)     -0.00  0.000000   -0.00     -0.00   
    25. D(H   7,O   3,C   0,O   2)    180.00 -0.000000    0.00    180.00   
    ----------------------------------------------------------------------------

         *************************************************************
         *                GEOMETRY OPTIMIZATION CYCLE   3            *
         *************************************************************
---------------------------------
CARTESIAN COORDINATES (ANGSTROEM)
---------------------------------
  C      0.033367    0.110771    0.000000
  C     -1.331544   -0.528722    0.000000
  O      0.211766    1.281736   -0.000000
  O      1.078159   -0.725624   -0.000000
  H     -2.092641    0.255512   -0.000000
  H     -1.466262   -1.168532    0.886491
  H     -1.466262   -1.168532   -0.886491
  H      0.813707   -1.652690   -0.000000

----------------------------
CARTESIAN COORDINATES (A.U.)
----------------------------
  NO LB      ZA    FRAG     MASS         X           Y           Z
   0 C     6.0000    0    12.011    0.063054    0.209327    0.000000
   1 C     6.0000    0    12.011   -2.516254   -0.999140    0.000000
   2 O     8.0000    0    15.999    0.400180    2.422130   -0.000000
   3 O     8.0000    0    15.999    2.037425   -1.371231   -0.000000
   4 H     1.0000    0     1.008   -3.954518    0.482847   -0.000000
   5 H     1.0000    0     1.008   -2.770833   -2.208205    1.675224
   6 H     1.0000    0     1.008   -2.770833   -2.208205   -1.675224
   7 H     1.0000    0     1.008    1.537683   -3.123131   -0.000000

--------------------------------
INTERNAL COORDINATES (ANGSTROEM)
--------------------------------
 C      0   0   0     0.000000000000     0.00000000     0.00000000
 C      1   0   0     1.507293486595     0.00000000     0.00000000
 O      1   2   0     1.184476819253   123.76676382     0.00000000
 O      1   2   3     1.338337472680   116.21719575   180.00000085
 H      2   1   3     1.092836144188   109.03798648     0.00000000
 H      2   1   3     1.101530865319   110.92690359   239.49844702
 H      2   1   3     1.101530863355   110.92690335   120.50155234
 H      4   1   2     0.964046637330   112.75741258     0.00000000

---------------------------
INTERNAL COORDINATES (A.U.)
---------------------------
 C      0   0   0     0.000000000000     0.00000000     0.00000000
 C      1   0   0     2.848371893108     0.00000000     0.00000000
 O      1   2   0     2.238336800367   123.76676382     0.00000000
 O      1   2   3     2.529091298130   116.21719575   180.00000085
 H      2   1   3     2.065161021767   109.03798648     0.00000000
 H      2   1   3     2.081591663515   110.92690359   239.49844702
 H      2   1   3     2.081591659803   110.92690335   120.50155234
 H      4   1   2     1.821784124882   112.75741258     0.00000000


Diagonalization of the overlap matrix:
Smallest eigenvalue                        ... 3.411e-03
Time for diagonalization                   ...    0.004 sec
Threshold for overlap eigenvalues          ... 1.000e-08
Number of eigenvalues below threshold      ... 0
Time for construction of square roots      ...    0.001 sec
Total time needed                          ...    0.005 sec

-------------------
DFT GRID GENERATION
-------------------

General Integration Accuracy     IntAcc      ...  4.340
Radial Grid Type                 RadialGrid  ... Gauss-Chebyshev
Angular Grid (max. acc.)         AngularGrid ... Lebedev-110
Angular grid pruning method      GridPruning ... 3 (G Style)
Weight generation scheme         WeightScheme... Becke
Basis function cutoff            BFCut       ...    1.0000e-11
Integration weight cutoff        WCut        ...    1.0000e-14
Grids for H and He will be reduced by one unit

# of grid points (after initial pruning)     ...   9920 (   0.0 sec)
# of grid points (after weights+screening)   ...   9552 (   0.0 sec)
nearest neighbour list constructed           ...    0.0 sec
Grid point re-assignment to atoms done       ...    0.0 sec
Grid point division into batches done        ...    0.0 sec
Reduced shell lists constructed in    0.1 sec

Total number of grid points                  ...     9552
Total number of batches                      ...      152
Average number of points per batch           ...       62
Average number of grid points per atom       ...     1194
Average number of shells per batch           ...    29.73 (82.57%)
Average number of basis functions per batch  ...    63.25 (83.23%)
Average number of large shells per batch     ...    25.50 (85.77%)
Average number of large basis fcns per batch ...    53.13 (83.99%)
Maximum spatial batch extension              ...  22.06, 18.30, 25.60 au
Average spatial batch extension              ...   4.26,  3.87,  4.31 au

Time for grid setup =    0.080 sec

--------------
SCF ITERATIONS
--------------
ITER       Energy         Delta-E        Max-DP      RMS-DP      [F,P]     Damp
               ***  Starting incremental Fock matrix formation  ***
  0   -228.6519411994   0.000000000000 0.01110961  0.00041014  0.0315808 0.7000
                      *** Initiating the SOSCF procedure ***
                      *** Re-Reading the Fockian *** 
                      *** Removing any level shift *** 
ITER      Energy       Delta-E        Grad      Rot      Max-DP    RMS-DP
  1   -228.65307320  -0.0011319989  0.002499  0.002499  0.032272  0.001174
               *** Restarting incremental Fock matrix formation ***
  2   -228.65576358  -0.0026903769  0.003351  0.009399  0.014494  0.000546
  3   -228.65557072   0.0001928541  0.007598  0.007275  0.009728  0.000366
  4   -228.65590447  -0.0003337533  0.000306  0.000266  0.001186  0.000046
  5   -228.65590527  -0.0000007962  0.000250  0.000133  0.000484  0.000021
  6   -228.65590607  -0.0000007975  0.000041  0.000047  0.000118  0.000006
  7   -228.65590608  -0.0000000083  0.000034  0.000035  0.000083  0.000003
  8   -228.65590610  -0.0000000227  0.000011  0.000012  0.000019  0.000001
  9   -228.65590610  -0.0000000006  0.000006  0.000004  0.000008  0.000001
                  ***Gradient check signals convergence***
              ***Rediagonalizing the Fockian in SOSCF/NRSCF***

               *****************************************************
               *                     SUCCESS                       *
               *           SCF CONVERGED AFTER  10 CYCLES          *
               *****************************************************

Setting up the final grid:

General Integration Accuracy     IntAcc      ...  4.670
Radial Grid Type                 RadialGrid  ... Gauss-Chebyshev
Angular Grid (max. acc.)         AngularGrid ... Lebedev-302
Angular grid pruning method      GridPruning ... 3 (G Style)
Weight generation scheme         WeightScheme... Becke
Basis function cutoff            BFCut       ...    1.0000e-11
Integration weight cutoff        WCut        ...    1.0000e-14
Grids for H and He will be reduced by one unit

# of grid points (after initial pruning)     ...  38424 (   0.0 sec)
# of grid points (after weights+screening)   ...  36646 (   0.1 sec)
nearest neighbour list constructed           ...    0.0 sec
Grid point re-assignment to atoms done       ...    0.0 sec
Grid point division into batches done        ...    0.1 sec
Reduced shell lists constructed in    0.3 sec

Total number of grid points                  ...    36646
Total number of batches                      ...      577
Average number of points per batch           ...       63
Average number of grid points per atom       ...     4581
Average number of shells per batch           ...    27.52 (76.44%)
Average number of basis functions per batch  ...    58.22 (76.60%)
Average number of large shells per batch     ...    23.08 (83.87%)
Average number of large basis fcns per batch ...    47.57 (81.70%)
Maximum spatial batch extension              ...  18.04, 16.05, 16.88 au
Average spatial batch extension              ...   2.97,  2.73,  2.98 au

Final grid set up in    0.4 sec
Final integration                            ... done (   0.4 sec)
Change in XC energy                          ...     0.000263117
Integrated number of electrons               ...    32.000026749
Previous integrated no of electrons          ...    32.002366297
Total Energy       :         -228.65564298 Eh           -6222.03637 eV
  Last Energy change         ...   -4.5560e-10  Tolerance :   1.0000e-08
  Last MAX-Density change    ...    2.6577e-06  Tolerance :   1.0000e-07
             **** THE GBW FILE WAS UPDATED (ethanoic_acid.gbw) ****
             **** DENSITY FILE WAS UPDATED (ethanoic_acid.scfp) ****
             **** ENERGY FILE WAS UPDATED (ethanoic_acid.en.tmp) ****
             **** THE GBW FILE WAS UPDATED (ethanoic_acid.gbw) ****
             **** DENSITY FILE WAS UPDATED (ethanoic_acid.scfp) ****
Total SCF time: 0 days 0 hours 0 min 9 sec 

-------------------------   --------------------
FINAL SINGLE POINT ENERGY      -228.655642983331
-------------------------   --------------------

------------------------------------------------------------------------------
                         ORCA SCF GRADIENT CALCULATION
------------------------------------------------------------------------------

Gradient of the Kohn-Sham DFT energy:
Kohn-Sham wavefunction type      ... RKS
Hartree-Fock exchange scaling    ...    0.250
Number of operators              ...    1
Number of atoms                  ...    8
Basis set dimensions             ...   76
Integral neglect threshold       ... 2.5e-11
Integral primitive cutoff        ... 2.5e-12

Nuclear repulsion gradient       ... done
One Electron Gradient            ... done
Pre-screening matrix             ... done
Starting the two electron gradient:
Two electron gradient done
Exchange-correlation gradient    ... done

------------------
CARTESIAN GRADIENT
------------------

   1   C   :    0.008411802    0.013999401    0.000000002
   2   C   :   -0.000004578    0.004848368   -0.000000001
   3   O   :   -0.003735213   -0.022843484   -0.000000001
   4   O   :   -0.008753470    0.006566527   -0.000000001
   5   H   :    0.001267680   -0.000980063   -0.000000000
   6   H   :   -0.000031783   -0.000245054   -0.000543813
   7   H   :   -0.000031783   -0.000245053    0.000543813
   8   H   :    0.002877345   -0.001100641   -0.000000000

Difference to translation invariance:
           :    0.0000000000    0.0000000000   -0.0000000000

Norm of the cartesian gradient     ...    0.0309602824
RMS gradient                       ...    0.0063197412
MAX gradient                       ...    0.0228434845

-------
TIMINGS
-------

Total SCF gradient time            ...        4.036 sec

One electron gradient       ....       0.028 sec  (  0.7%)
Prescreening matrices       ....       0.047 sec  (  1.2%)
Two electron gradient       ....       1.696 sec  ( 42.0%)
XC gradient                 ....       1.995 sec  ( 49.4%)
------------------------------------------------------------------------------
                         ORCA GEOMETRY RELAXATION STEP
------------------------------------------------------------------------------

Reading the OPT-File                    .... done
Getting information on internals        .... done
Copying old internal coords+grads       .... done
Making the new internal coordinates     .... (new redundants).... done
Validating the new internal coordinates .... (new redundants).... done
Calculating the B-matrix                .... done
Calculating the G,G- and P matrices     .... done
Transforming gradient to internals      .... done
Projecting the internal gradient        .... done
Number of atoms                         ....   8
Number of internal coordinates          ....  25
Current Energy                          ....  -228.655642983 Eh
Current gradient norm                   ....     0.030960282 Eh/bohr
Maximum allowed component of the step   ....  0.300
Current trust radius                    ....  0.300
Updating the Hessian (BFGS)             .... done
Forming the augmented Hessian           .... done
Diagonalizing the augmented Hessian     .... done
Last element of RFO vector              ....  0.999368115
Lowest eigenvalues of augmented Hessian:
 -0.000770723  0.017092604  0.022211575  0.038035216  0.133454808
Length of the computed step             ....  0.035566395
The final length of the internal step   ....  0.035566395
Converting the step to cartesian space:
 Initial RMS(Int)=    0.0071132790
Transforming coordinates:
 Iter   0:  RMS(Cart)=    0.0135856154 RMS(Int)=    1.7771674227
 Iter   1:  RMS(Cart)=    0.0001171709 RMS(Int)=    0.0001315872
 Iter   2:  RMS(Cart)=    0.0000030438 RMS(Int)=    0.0000019191
 Iter   3:  RMS(Cart)=    0.0000000731 RMS(Int)=    0.0000000862
done
Storing new coordinates                 .... done

                                .--------------------.
          ----------------------|Geometry convergence|-------------------------
          Item                value                   Tolerance       Converged
          ---------------------------------------------------------------------
          Energy change      -0.0033312158            0.0000050000      NO
          RMS gradient        0.0052054447            0.0001000000      NO
          MAX gradient        0.0231450859            0.0003000000      NO
          RMS step            0.0071132790            0.0020000000      NO
          MAX step            0.0190557955            0.0040000000      NO
          ........................................................
          Max(Bonds)      0.0101      Max(Angles)    1.01
          Max(Dihed)        0.07      Max(Improp)    0.00
          ---------------------------------------------------------------------

The optimization has not yet converged - more geometry cycles are needed


    ---------------------------------------------------------------------------
                         Redundant Internal Coordinates
                            (Angstroem and degrees)

        Definition                    Value    dE/dq     Step     New-Value
    ----------------------------------------------------------------------------
     1. B(C   1,C   0)                1.5073 -0.002519  0.0043    1.5116   
     2. B(O   2,C   0)                1.1845 -0.023145  0.0101    1.1946   
     3. B(O   3,C   0)                1.3383 -0.008004  0.0058    1.3441   
     4. B(H   4,C   1)                1.0928 -0.001587  0.0013    1.0941   
     5. B(H   5,C   1)                1.1015 -0.000291  0.0001    1.1016   
     6. B(H   6,C   1)                1.1015 -0.000291  0.0001    1.1016   
     7. B(H   7,O   3)                0.9640  0.000268 -0.0004    0.9636   
     8. A(O   2,C   0,O   3)          120.02 -0.002178    0.36    120.38   
     9. A(C   1,C   0,O   2)          123.77 -0.002746    0.55    124.32   
    10. A(C   1,C   0,O   3)          116.22  0.004924   -0.91    115.31   
    11. A(H   4,C   1,H   5)          109.37  0.000142   -0.03    109.34   
    12. A(C   0,C   1,H   5)          110.93  0.000303    0.05    110.98   
    13. A(C   0,C   1,H   6)          110.93  0.000303    0.05    110.98   
    14. A(H   5,C   1,H   6)          107.18 -0.000569    0.07    107.25   
    15. A(H   4,C   1,H   6)          109.37  0.000142   -0.03    109.34   
    16. A(C   0,C   1,H   4)          109.04 -0.000319   -0.10    108.93   
    17. A(C   0,O   3,H   7)          112.76  0.005592   -1.01    111.74   
    18. D(H   4,C   1,C   0,O   2)     -0.00 -0.000000    0.00      0.00   
    19. D(H   5,C   1,C   0,O   3)     59.50 -0.000159    0.07     59.57   
    20. D(H   4,C   1,C   0,O   3)   -180.00  0.000000   -0.00   -180.00   
    21. D(H   6,C   1,C   0,O   2)    120.50  0.000159   -0.07    120.43   
    22. D(H   6,C   1,C   0,O   3)    -59.50  0.000159   -0.07    -59.57   
    23. D(H   5,C   1,C   0,O   2)   -120.50 -0.000159    0.07   -120.43   
    24. D(H   7,O   3,C   0,C   1)     -0.00 -0.000000    0.00      0.00   
    25. D(H   7,O   3,C   0,O   2)   -180.00  0.000000   -0.00   -180.00   
    ----------------------------------------------------------------------------

         *************************************************************
         *                GEOMETRY OPTIMIZATION CYCLE   4            *
         *************************************************************
---------------------------------
CARTESIAN COORDINATES (ANGSTROEM)
---------------------------------
  C      0.036099    0.117955   -0.000000
  C     -1.328148   -0.532952   -0.000000
  O      0.219030    1.298426    0.000000
  O      1.077929   -0.731306    0.000000
  H     -2.094198    0.248217    0.000000
  H     -1.459751   -1.172907    0.886936
  H     -1.459751   -1.172907   -0.886936
  H      0.789080   -1.650606    0.000000

----------------------------
CARTESIAN COORDINATES (A.U.)
----------------------------
  NO LB      ZA    FRAG     MASS         X           Y           Z
   0 C     6.0000    0    12.011    0.068217    0.222903   -0.000000
   1 C     6.0000    0    12.011   -2.509835   -1.007133   -0.000000
   2 O     8.0000    0    15.999    0.413907    2.453669    0.000000
   3 O     8.0000    0    15.999    2.036990   -1.381969    0.000000
   4 H     1.0000    0     1.008   -3.957461    0.469063    0.000000
   5 H     1.0000    0     1.008   -2.758530   -2.216473    1.676067
   6 H     1.0000    0     1.008   -2.758530   -2.216473   -1.676067
   7 H     1.0000    0     1.008    1.491145   -3.119193    0.000000

--------------------------------
INTERNAL COORDINATES (ANGSTROEM)
--------------------------------
 C      0   0   0     0.000000000000     0.00000000     0.00000000
 C      1   0   0     1.511571369504     0.00000000     0.00000000
[...]
Integral neglect threshold                       ... 2.5e-11
Integral primitive cutoff                        ... 2.5e-12

Setting up DFT Hessian calculations              ... 
Electron density on the grid                     ... found on disk
Electron density on the final grid               ... found on disk
Building xc-kernel on the grid                   ... done   (      0.0 sec)
Building xc-kernel on the final grid             ... done   (      0.1 sec)
                                                     done   (      0.2 sec)

Nuclear repulsion Hessian                        ... done   (      0.0 sec)

----------------------------------------------
Forming right-hand sides of CP-SCF equations     ...
----------------------------------------------
One electron integral derivatives                ... done   (      0.3 sec)
Transforming the overlap derivative matrices     ... done   (      0.0 sec)
Making the Q(x) pseudodensities                  ... done   (      0.0 sec)
Adding the E*S(x)*S(y) terms to the Hessian      ... done   (      0.0 sec)
Calculating energy weighted overlap derivatives  ... done   (      0.0 sec)
Two electron integral derivatives                ... done   (      3.6 sec)
Exchange-correlation integral derivatives        ... done   (     14.1 sec)
tr(F(y)Q(x)) contribution to the Hessian         ... done   (      0.0 sec)
Response fock operator R(S(x))                   ... done   (      8.1 sec)
XC Response fock operator R(S(x))                ... done   (      4.1 sec)
tr(F(y)S(x)) contribution to the Hessian         ... done   (      0.0 sec)
Transforming and finalizing RHSs                 ... done   (      0.0 sec)

----------------------------------------------
Solving the CP-SCF equations                     ...
----------------------------------------------
     CP-SCF ITERATION   0: 
     CP-SCF ITERATION   1:      0.004405724049
     CP-SCF ITERATION   2:      0.000248000513
     CP-SCF ITERATION   3:      0.000016746441
     CP-SCF ITERATION   4:      0.000001877524
     CP-SCF ITERATION   5:      0.000000063817
     CP-SCF ITERATION   6:      0.000000009995

                                                 ... done   (     65.8 sec)
Forming perturbed density Hessian contributions  ... done   (      0.0 sec)
Making the perturbed densities                   ... done   (      0.0 sec)
2nd integral derivative contribs                 ... done   (     18.2 sec)
Exchange-correlation Hessian                     ... done   (     13.0 sec)
Dipol derivatives                                ... done   (      0.4 sec)

Total SCF Hessian time: 0 days 0 hours 2 min 8 sec 

Writing the Hessian file to the disk             ... done


Maximum memory used throughout the entire calculation: 101.3 MB

-----------------------
VIBRATIONAL FREQUENCIES
-----------------------

Scaling factor for frequencies =  1.000000000  (already applied!)

   0:         0.00 cm**-1
   1:         0.00 cm**-1
   2:         0.00 cm**-1
   3:         0.00 cm**-1
   4:         0.00 cm**-1
   5:         0.00 cm**-1
   6:       103.96 cm**-1
   7:       433.09 cm**-1
   8:       472.84 cm**-1
   9:       598.87 cm**-1
  10:       614.97 cm**-1
  11:       896.33 cm**-1
  12:       982.35 cm**-1
  13:      1044.60 cm**-1
  14:      1208.95 cm**-1
  15:      1321.40 cm**-1
  16:      1390.60 cm**-1
  17:      1439.99 cm**-1
  18:      1454.82 cm**-1
  19:      1938.25 cm**-1
  20:      3061.95 cm**-1
  21:      3149.79 cm**-1
  22:      3212.56 cm**-1
  23:      3872.23 cm**-1


------------
NORMAL MODES
------------

These modes are the Cartesian displacements weighted by the diagonal matrix
M(i,i)=1/sqrt(m[i]) where m[i] is the mass of the displaced atom
Thus, these vectors are normalized but *not* orthogonal

                  0          1          2          3          4          5    
      0       0.000000   0.000000   0.000000   0.000000   0.000000   0.000000
      1       0.000000   0.000000   0.000000   0.000000   0.000000   0.000000
      2       0.000000   0.000000   0.000000   0.000000   0.000000   0.000000
      3       0.000000   0.000000   0.000000   0.000000   0.000000   0.000000
      4       0.000000   0.000000   0.000000   0.000000   0.000000   0.000000
      5       0.000000   0.000000   0.000000   0.000000   0.000000   0.000000
      6       0.000000   0.000000   0.000000   0.000000   0.000000   0.000000
      7       0.000000   0.000000   0.000000   0.000000   0.000000   0.000000
      8       0.000000   0.000000   0.000000   0.000000   0.000000   0.000000
      9       0.000000   0.000000   0.000000   0.000000   0.000000   0.000000
     10       0.000000   0.000000   0.000000   0.000000   0.000000   0.000000
     11       0.000000   0.000000   0.000000   0.000000   0.000000   0.000000
     12       0.000000   0.000000   0.000000   0.000000   0.000000   0.000000
     13       0.000000   0.000000   0.000000   0.000000   0.000000   0.000000
     14       0.000000   0.000000   0.000000   0.000000   0.000000   0.000000
     15       0.000000   0.000000   0.000000   0.000000   0.000000   0.000000
     16       0.000000   0.000000   0.000000   0.000000   0.000000   0.000000
     17       0.000000   0.000000   0.000000   0.000000   0.000000   0.000000
     18       0.000000   0.000000   0.000000   0.000000   0.000000   0.000000
     19       0.000000   0.000000   0.000000   0.000000   0.000000   0.000000
     20       0.000000   0.000000   0.000000   0.000000   0.000000   0.000000
     21       0.000000   0.000000   0.000000   0.000000   0.000000   0.000000
     22       0.000000   0.000000   0.000000   0.000000   0.000000   0.000000
     23       0.000000   0.000000   0.000000   0.000000   0.000000   0.000000
                  6          7          8          9         10         11    
      0       0.000000  -0.027557   0.000000  -0.000000   0.153978   0.150941
      1      -0.000000   0.132996   0.000000  -0.000000   0.019375   0.150971
      2      -0.016774  -0.000000   0.074697  -0.267933  -0.000001   0.000000
      3      -0.000000   0.110748   0.000000  -0.000000   0.291865  -0.294500
      4      -0.000000  -0.144114  -0.000000  -0.000000   0.157777  -0.139724
      5      -0.003705  -0.000000  -0.014361  -0.032189  -0.000000   0.000000
      6      -0.000000   0.118011   0.000000   0.000000  -0.334239  -0.019896
      7      -0.000000   0.113398   0.000000  -0.000000   0.100603   0.238136
      8       0.053422   0.000000   0.005186   0.105227   0.000000  -0.000000
      9       0.000000  -0.190342  -0.000000   0.000000  -0.023815   0.224019
     10       0.000000  -0.048884   0.000000   0.000000  -0.266964  -0.209842
     11      -0.037770   0.000000  -0.097291   0.047013   0.000000  -0.000000
     12       0.000000  -0.244113  -0.000000  -0.000000   0.410805  -0.410139
     13       0.000000  -0.499811  -0.000000  -0.000000   0.268551  -0.234292
     14      -0.531662  -0.000000  -0.112006   0.321152   0.000001  -0.000000
     15      -0.160829   0.401862  -0.150313   0.466341   0.229284  -0.404363
     16       0.475115  -0.209363  -0.025497   0.166002   0.182293  -0.155832
     17       0.315330  -0.004266  -0.052166   0.159665   0.007472  -0.014785
     18       0.160829   0.401862   0.150313  -0.466341   0.229283  -0.404363
     19      -0.475115  -0.209363   0.025497  -0.166002   0.182292  -0.155832
     20       0.315331   0.004266  -0.052166   0.159665  -0.007472   0.014785
     21       0.000000  -0.402855   0.000000   0.000001  -0.498850  -0.310386
     22       0.000000   0.027036  -0.000000  -0.000000  -0.103521  -0.037147
     23      -0.103406  -0.000000   0.959294   0.519334   0.000001   0.000000
                 12         13         14         15         16         17    
      0      -0.064078   0.000000  -0.104524  -0.194750  -0.211136  -0.047321
      1       0.000488   0.000000   0.043237   0.044536   0.049126   0.006212
      2      -0.000000   0.218823   0.000000   0.000000   0.000000   0.000000
      3      -0.052184  -0.000000   0.034050  -0.044554   0.193412  -0.018814
      4       0.153493   0.000000  -0.055201  -0.064252   0.054071   0.040859
      5       0.000000  -0.170275  -0.000000  -0.000000   0.000000  -0.000000
      6      -0.021965  -0.000000   0.015774   0.025822   0.021755   0.010190
      7      -0.026150  -0.000000   0.091183  -0.013481  -0.020618   0.014098
      8       0.000000  -0.045926  -0.000000  -0.000000   0.000000  -0.000000
      9       0.066929   0.000000  -0.025287   0.115931   0.090015   0.017127
     10      -0.053749  -0.000000  -0.077539  -0.031281  -0.033993  -0.007551
     11      -0.000000  -0.029073  -0.000000  -0.000000  -0.000000  -0.000000
     12      -0.547913  -0.000000   0.261960   0.354643  -0.261287   0.281847
     13      -0.346360  -0.000000   0.173295   0.329277  -0.394735   0.327951
     14      -0.000000   0.350046   0.000000   0.000000   0.000000   0.000000
     15       0.453720   0.517713  -0.057842   0.349200  -0.536204   0.072427
     16      -0.040064   0.327618   0.059931   0.232895  -0.016493  -0.507834
     17      -0.066671   0.150607   0.060567   0.250710  -0.151918  -0.371504
     18       0.453720  -0.517713  -0.057842   0.349200  -0.536204   0.072427
     19      -0.040064  -0.327619   0.059931   0.232894  -0.016493  -0.507834
     20       0.066671   0.150607  -0.060567  -0.250710   0.151918   0.371504
     21       0.312154  -0.000000   0.844465  -0.451492  -0.229117  -0.072240
     22      -0.140137   0.000000  -0.367148   0.150322   0.064855   0.022916
     23      -0.000000  -0.039357  -0.000000   0.000000   0.000000   0.000000
                 18         19         20         21         22         23    
      0      -0.000000  -0.138550  -0.002846   0.000000  -0.000135   0.002000
      1       0.000000  -0.738934   0.000147   0.000000  -0.002438   0.001888
      2       0.022637   0.000000   0.000000  -0.000365   0.000000   0.000000
      3       0.000000   0.029861   0.036468   0.000000   0.049847   0.000248
      4       0.000000   0.051730   0.039111  -0.000000  -0.078939  -0.000368
      5       0.052868   0.000000   0.000000  -0.092820   0.000000  -0.000000
      6       0.000000   0.083112   0.000100  -0.000000  -0.000031  -0.000290
      7      -0.000000   0.463807  -0.000557  -0.000000   0.000904  -0.001057
      8      -0.001869  -0.000000  -0.000000  -0.000192  -0.000000   0.000000
      9       0.000000   0.020417   0.000221   0.000000  -0.000413   0.018160
     10      -0.000000   0.043877  -0.000094   0.000000   0.000414   0.059691
     11      -0.003976   0.000000  -0.000000   0.000184   0.000000   0.000000
     12       0.000000  -0.143295  -0.271143  -0.000000  -0.649569   0.002936
     13      -0.000000  -0.158663   0.282905   0.000000   0.653736   0.000544
     14      -0.720335  -0.000000  -0.000000  -0.014956  -0.000000   0.000000
     15       0.437094   0.069993  -0.068188  -0.078367   0.033488   0.000189
     16      -0.211993   0.077736  -0.369205  -0.413729   0.147391  -0.000922
     17      -0.052338   0.035227   0.529927   0.564148  -0.219394  -0.001080
     18      -0.437094   0.069993  -0.068188   0.078367   0.033488   0.000189
     19       0.211993   0.077736  -0.369206   0.413729   0.147391  -0.000922
     20      -0.052338  -0.035227  -0.529927   0.564148   0.219394   0.001080
     21       0.000000  -0.344807   0.001805  -0.000000  -0.002702  -0.313722
     22      -0.000000   0.133720  -0.001946  -0.000000   0.000216  -0.947451
     23       0.018097   0.000000  -0.000000  -0.002848   0.000000  -0.000000


-----------
IR SPECTRUM
-----------

 Mode    freq (cm**-1)   T**2         TX         TY         TZ
-------------------------------------------------------------------
   6:       103.96    0.076188  (  0.000000  -0.000001  -0.276021)
   7:       433.09    4.635260  ( -2.040277   0.687407  -0.000001)
   8:       472.84  103.866305  (  0.000002   0.000002  10.191482)
   9:       598.87    2.388969  ( -0.000001  -0.000010   1.545629)
  10:       614.97    7.241979  (  1.956836   1.847369   0.000002)
  11:       896.33   21.265058  ( -1.737876   4.271399   0.000000)
  12:       982.35    2.204098  ( -1.457130   0.284374  -0.000001)
  13:      1044.60    8.076080  (  0.000000   0.000008   2.841844)
  14:      1208.95   17.447619  (  2.556686  -3.303177  -0.000001)
  15:      1321.40  229.597884  (-11.633794   9.708384   0.000002)
  16:      1390.60  230.357836  (-14.471028   4.576808   0.000001)
  17:      1439.99    7.062022  ( -2.229055  -1.446836   0.000001)
  18:      1454.82   11.831567  (  0.000000   0.000001  -3.439704)
  19:      1938.25  292.962156  ( -2.953517 -16.859386  -0.000000)
  20:      3061.95    2.048160  (  0.213534   1.415119  -0.000001)
  21:      3149.79    2.898132  (  0.000001   0.000001  -1.702390)
  22:      3212.56    0.439970  (  0.510601  -0.423387   0.000000)
  23:      3872.23   61.323087  ( -0.099333  -7.830276  -0.000001)

The first frequency considered to be a vibration is 6
The total number of vibrations considered is 18


--------------------------
THERMOCHEMISTRY AT 298.15K
--------------------------

Temperature         ... 298.15 K
Pressure            ... 1.00 atm
Total Mass          ... 60.05 AMU

Throughout the following assumptions are being made:
  (1) The electronic state is orbitally nondegenerate
  (2) There are no thermally accessible electronically excited states
  (3) Hindered rotations indicated by low frequency modes are not
      treated as such but are treated as vibrations and this may
      cause some error
  (4) All equations used are the standard statistical mechanics
      equations for an ideal gas
  (5) All vibrations are strictly harmonic

freq.     103.96  E(vib)   ...       0.46 
freq.     433.09  E(vib)   ...       0.17 
freq.     472.84  E(vib)   ...       0.15 
freq.     598.87  E(vib)   ...       0.10 
freq.     614.97  E(vib)   ...       0.10 
freq.     896.33  E(vib)   ...       0.03 
freq.     982.35  E(vib)   ...       0.02 
freq.    1044.60  E(vib)   ...       0.02 
freq.    1208.95  E(vib)   ...       0.01 
freq.    1321.40  E(vib)   ...       0.01 
freq.    1390.60  E(vib)   ...       0.00 
freq.    1439.99  E(vib)   ...       0.00 
freq.    1454.82  E(vib)   ...       0.00 
freq.    1938.25  E(vib)   ...       0.00 
freq.    3061.95  E(vib)   ...       0.00 
freq.    3149.79  E(vib)   ...       0.00 
freq.    3212.56  E(vib)   ...       0.00 
freq.    3872.23  E(vib)   ...       0.00 

------------
INNER ENERGY
------------

The inner energy is: U= E(el) + E(ZPE) + E(vib) + E(rot) + E(trans)
    E(el)   - is the total energy from the electronic structure calculation
              = E(kin-el) + E(nuc-el) + E(el-el) + E(nuc-nuc)
    E(ZPE)  - the the zero temperature vibrational energy from the frequency calculation
    E(vib)  - the the finite temperature correction to E(ZPE) due to population
              of excited vibrational states
    E(rot)  - is the rotational thermal energy
    E(trans)- is the translational thermal energy

Summary of contributions to the inner energy U:
Electronic energy                ...   -228.65615507 Eh
Zero point energy                ...      0.06196060 Eh      38.88 kcal/mol
Thermal vibrational correction   ...      0.00173550 Eh       1.09 kcal/mol
Thermal rotational correction    ...      0.00141627 Eh       0.89 kcal/mol
Thermal translational correction ...      0.00141627 Eh       0.89 kcal/mol
-----------------------------------------------------------------------
Total thermal energy                   -228.58962643 Eh


Summary of corrections to the electronic energy:
(perhaps to be used in another calculation)
Total thermal correction                  0.00456804 Eh       2.87 kcal/mol
Non-thermal (ZPE) correction              0.06196060 Eh      38.88 kcal/mol
-----------------------------------------------------------------------
Total correction                          0.06652864 Eh      41.75 kcal/mol


--------
ENTHALPY
--------

The enthalpy is H = U + kB*T
                kB is Boltzmann's constant
Total free energy                 ...   -228.58962643 Eh 
Thermal Enthalpy correction       ...      0.00094421 Eh       0.59 kcal/mol
-----------------------------------------------------------------------
Total Enthalpy                    ...   -228.58868222 Eh


Note: Rotational entropy computed according to Herzberg 
Infrared and Raman Spectra, Chapter V,1, Van Nostrand Reinhold, 1945 
Point Group:  Cs, Symmetry Number:   1  
Rotational constants in cm-1:     0.369273     0.322936     0.178089 

Vibrational entropy computed according to the QRRHO of S. Grimme
Chem.Eur.J. 2012 18 9955


-------
ENTROPY
-------

The entropy contributions are T*S = T*(S(el)+S(vib)+S(rot)+S(trans))
     S(el)   - electronic entropy
     S(vib)  - vibrational entropy
     S(rot)  - rotational entropy
     S(trans)- translational entropy
The entropies will be listed as mutliplied by the temperature to get
units of energy

Electronic entropy                ...      0.00000000 Eh      0.00 kcal/mol
Vibrational entropy               ...      0.00285692 Eh      1.79 kcal/mol
Rotational entropy                ...      0.01132930 Eh      7.11 kcal/mol
Translational entropy             ...      0.01814900 Eh     11.39 kcal/mol
-----------------------------------------------------------------------
Final entropy term                ...      0.03233522 Eh     20.29 kcal/mol

In case the symmetry of your molecule has not been determined correctly
or in case you have a reason to use a different symmetry number we print 
out the resulting rotational entropy values for sn=1,12 :
 --------------------------------------------------------
|  sn= 1 | S(rot)=       0.01132930 Eh      7.11 kcal/mol|
|  sn= 2 | S(rot)=       0.01067484 Eh      6.70 kcal/mol|
|  sn= 3 | S(rot)=       0.01029201 Eh      6.46 kcal/mol|
|  sn= 4 | S(rot)=       0.01002039 Eh      6.29 kcal/mol|
|  sn= 5 | S(rot)=       0.00980970 Eh      6.16 kcal/mol|
|  sn= 6 | S(rot)=       0.00963755 Eh      6.05 kcal/mol|
|  sn= 7 | S(rot)=       0.00949201 Eh      5.96 kcal/mol|
|  sn= 8 | S(rot)=       0.00936593 Eh      5.88 kcal/mol|
|  sn= 9 | S(rot)=       0.00925472 Eh      5.81 kcal/mol|
|  sn=10 | S(rot)=       0.00915524 Eh      5.74 kcal/mol|
|  sn=11 | S(rot)=       0.00906525 Eh      5.69 kcal/mol|
|  sn=12 | S(rot)=       0.00898310 Eh      5.64 kcal/mol|
 --------------------------------------------------------


-------------------
GIBBS FREE ENERGY
-------------------

The Gibbs free energy is G = H - T*S

Total enthalpy                    ...   -228.58868222 Eh 
Total entropy correction          ...     -0.03233522 Eh    -20.29 kcal/mol
-----------------------------------------------------------------------
Final Gibbs free energy         ...   -228.62101744 Eh

For completeness - the Gibbs free energy minus the electronic energy
G-E(el)                           ...      0.03513763 Eh     22.05 kcal/mol


Timings for individual modules:

Sum of individual times         ...      218.384 sec (=   3.640 min)
GTO integral calculation        ...        3.141 sec (=   0.052 min)   1.4 %
SCF iterations                  ...       61.380 sec (=   1.023 min)  28.1 %
SCF Gradient evaluation         ...       24.835 sec (=   0.414 min)  11.4 %
Geometry relaxation             ...        0.454 sec (=   0.008 min)   0.2 %
Analytical frequency calculation...      128.574 sec (=   2.143 min)  58.9 %
                             ****ORCA TERMINATED NORMALLY****
TOTAL RUN TIME: 0 days 0 hours 3 minutes 39 seconds 156 msec
